 vasp.5.2.12 26May11 complex 
 executed on             LinuxPgi date 2017.07.13  17:33:54
 running on   48 nodes
 distr:  one band on   12 nodes,    4 groups


--------------------------------------------------------------------------------------------------------


 INCAR:
 POTCAR:    PAW_PBE S 17Jan2003                   
 POTCAR:   PAW_PBE Mo 08Apr2002                   
 POTCAR:   PAW_PBE W 08Apr2002                    
 POTCAR:    PAW_PBE S 17Jan2003                   
   VRHFIN =S : s2p4                                                             
   LEXCH  = PE                                                                  
   EATOM  =   276.8230 eV,   20.3459 Ry                                         
                                                                                
   TITEL  = PAW_PBE S 17Jan2003                                                 
   LULTRA =        F    use ultrasoft PP ?                                      
   IUNSCR =        1    unscreen: 0-lin 1-nonlin 2-no                           
   RPACOR =    1.500    partial core radius                                     
   POMASS =   32.066; ZVAL   =    6.000    mass and valenz                      
   RCORE  =    1.900    outmost cutoff radius                                   
   RWIGS  =    2.200; RWIGS  =    1.164    wigner-seitz radius (au A)           
   ENMAX  =  280.000; ENMIN  =  194.016 eV                                      
   ICORE  =        2    local potential                                         
   LCOR   =        T    correct aug charges                                     
   LPAW   =        T    paw PP                                                  
   EAUG   =  335.092                                                            
   DEXC   =     .000                                                            
   RMAX   =    2.867    core radius for proj-oper                               
   RAUG   =    1.300    factor for augmentation sphere                          
   RDEP   =    1.954    radius for radial grids                                 
   QCUT   =   -4.360; QGAM   =    8.721    optimization parameters              
                                                                                
   Description                                                                  
     l     E      TYP  RCUT    TYP  RCUT                                        
     0   .000     23  1.900                                                     
     0   .000     23  1.900                                                     
     1   .000     23  1.900                                                     
     1   .000     23  1.900                                                     
     2   .000     23  1.900                                                     
  local pseudopotential read in
  partial core-charges read in
  atomic valenz-charges read in
  non local Contribution for L=           0  read in
    real space projection operators read in
  non local Contribution for L=           0  read in
    real space projection operators read in
  non local Contribution for L=           1  read in
    real space projection operators read in
  non local Contribution for L=           1  read in
    real space projection operators read in
    PAW grid and wavefunctions read in
 
   number of l-projection  operators is LMAX  =           4
   number of lm-projection operators is LMMAX =           8
 
 POTCAR:   PAW_PBE Mo 08Apr2002                   
   VRHFIN =Mo: 4p5s4d                                                           
   LEXCH  = PE                                                                  
   EATOM  =   217.5180 eV,   15.9871 Ry                                         
                                                                                
   TITEL  = PAW_PBE Mo 08Apr2002                                                
   LULTRA =        F    use ultrasoft PP ?                                      
   IUNSCR =        1    unscreen: 0-lin 1-nonlin 2-no                           
   RPACOR =    2.200    partial core radius                                     
   POMASS =   95.940; ZVAL   =    6.000    mass and valenz                      
   RCORE  =    2.750    outmost cutoff radius                                   
   RWIGS  =    2.750; RWIGS  =    1.455    wigner-seitz radius (au A)           
   ENMAX  =  224.584; ENMIN  =  168.438 eV                                      
   RCLOC  =    2.111    cutoff for local pot                                    
   LCOR   =        T    correct aug charges                                     
   LPAW   =        T    paw PP                                                  
   EAUG   =  345.278                                                            
   DEXC   =    -.088                                                            
   RMAX   =    3.077    core radius for proj-oper                               
   RAUG   =    1.300    factor for augmentation sphere                          
   RDEP   =    2.815    radius for radial grids                                 
   QCUT   =   -4.063; QGAM   =    8.126    optimization parameters              
                                                                                
   Description                                                                  
     l     E      TYP  RCUT    TYP  RCUT                                        
     2   .000     23  2.500                                                     
     2   .000     23  2.500                                                     
     0   .000     23  2.600                                                     
     0  1.000     23  2.600                                                     
     1   .400     23  2.750                                                     
     1  2.000     23  2.750                                                     
     3   .000      7   .000                                                     
  local pseudopotential read in
  partial core-charges read in
  atomic valenz-charges read in
  non local Contribution for L=           2  read in
    real space projection operators read in
  non local Contribution for L=           2  read in
    real space projection operators read in
  non local Contribution for L=           0  read in
    real space projection operators read in
  non local Contribution for L=           0  read in
    real space projection operators read in
  non local Contribution for L=           1  read in
    real space projection operators read in
  non local Contribution for L=           1  read in
    real space projection operators read in
    PAW grid and wavefunctions read in
 
   number of l-projection  operators is LMAX  =           6
   number of lm-projection operators is LMMAX =          18
 
 POTCAR:   PAW_PBE W 08Apr2002                    
   VRHFIN =W : 6s5d                                                             
   LEXCH  = PE                                                                  
   EATOM  =   204.6100 eV,   15.0384 Ry                                         
                                                                                
   TITEL  = PAW_PBE W 08Apr2002                                                 
   LULTRA =        F    use ultrasoft PP ?                                      
   IUNSCR =        1    unscreen: 0-lin 1-nonlin 2-no                           
   RPACOR =    2.330    partial core radius                                     
   POMASS =  183.850; ZVAL   =    6.000    mass and valenz                      
   RCORE  =    2.750    outmost cutoff radius                                   
   RWIGS  =    2.750; RWIGS  =    1.455    wigner-seitz radius (au A)           
   ENMAX  =  223.057; ENMIN  =  167.293 eV                                      
   RCLOC  =    2.147    cutoff for local pot                                    
   LCOR   =        T    correct aug charges                                     
   LPAW   =        T    paw PP                                                  
   EAUG   =  373.438                                                            
   DEXC   =    -.060                                                            
   RMAX   =    3.087    core radius for proj-oper                               
   RAUG   =    1.300    factor for augmentation sphere                          
   RDEP   =    2.886    radius for radial grids                                 
   QCUT   =   -4.049; QGAM   =    8.098    optimization parameters              
                                                                                
   Description                                                                  
     l     E      TYP  RCUT    TYP  RCUT                                        
     2   .000     23  2.500                                                     
     2   .000     23  2.500                                                     
     0   .000     23  2.500                                                     
     0   .000     23  2.500                                                     
     1   .200     23  2.750                                                     
     1  2.000     23  2.750                                                     
     3   .000      7   .000                                                     
  local pseudopotential read in
  partial core-charges read in
  atomic valenz-charges read in
  non local Contribution for L=           2  read in
    real space projection operators read in
  non local Contribution for L=           2  read in
    real space projection operators read in
  non local Contribution for L=           0  read in
    real space projection operators read in
  non local Contribution for L=           0  read in
    real space projection operators read in
  non local Contribution for L=           1  read in
    real space projection operators read in
  non local Contribution for L=           1  read in
    real space projection operators read in
    PAW grid and wavefunctions read in
 
   number of l-projection  operators is LMAX  =           6
   number of lm-projection operators is LMMAX =          18
 

 ----------------------------------------------------------------------------- 
|                                                                             |
|  ADVICE TO THIS USER RUNNING 'VASP/VAMP'   (HEAR YOUR MASTER'S VOICE ...):  |
|                                                                             |
|      You have a (more or less) 'small supercell' and for smaller cells      |
|      it is recommended  to use the reciprocal-space projection scheme!      |
|      The real space optimization is not  efficient for small cells and it   |
|      is also less accurate ...                                              |
|      Therefore set LREAL=.FALSE. in the  INCAR file                         |
|                                                                             |
 ----------------------------------------------------------------------------- 

 Optimization of the real space projectors (new method)

 maximal supplied QI-value         = 19.84
 optimisation between [QCUT,QGAM] = [  9.52, 23.81] = [ 25.40,158.76] Ry 
 Optimized for a Real-space Cutoff    1.08 Angstroem

   l    n(q)    QCUT    max X(q) W(low)/X(q) W(high)/X(q)  e(spline) 
   0      8     9.524     5.487    0.13E-04    0.86E-06    0.56E-08
   0      8     9.524    85.627    0.21E-03    0.22E-03    0.92E-07
   1      7     9.524     3.530    0.52E-04    0.38E-04    0.15E-07
   1      7     9.524    42.714    0.28E-03    0.19E-03    0.99E-07
 Optimization of the real space projectors (new method)

 maximal supplied QI-value         = 13.61
 optimisation between [QCUT,QGAM] = [  9.52, 23.95] = [ 25.40,160.58] Ry 
 Optimized for a Real-space Cutoff    1.54 Angstroem

   l    n(q)    QCUT    max X(q) W(low)/X(q) W(high)/X(q)  e(spline) 
   2     10     9.524     3.671    0.12E-05    0.33E-05    0.79E-07
   2     10     9.524    29.382    0.27E-03    0.99E-04    0.69E-06
   0     11     9.524    26.379    0.14E-04    0.22E-05    0.27E-07
   0     11     9.524    49.709    0.22E-04    0.17E-04    0.53E-06
   1     11     9.524     7.852    0.13E-04    0.33E-04    0.12E-06
   1     11     9.524    10.693    0.51E-04    0.15E-03    0.50E-06
 Optimization of the real space projectors (new method)

 maximal supplied QI-value         = 13.61
 optimisation between [QCUT,QGAM] = [  9.52, 23.95] = [ 25.40,160.58] Ry 
 Optimized for a Real-space Cutoff    1.54 Angstroem

   l    n(q)    QCUT    max X(q) W(low)/X(q) W(high)/X(q)  e(spline) 
   2     10     9.524     3.603    0.26E-05    0.36E-05    0.73E-07
   2     10     9.524    54.643    0.22E-03    0.83E-04    0.54E-06
   0     11     9.524    21.523    0.13E-04    0.45E-06    0.71E-07
   0     11     9.524    66.991    0.31E-04    0.44E-05    0.45E-06
   1     11     9.524     8.343    0.13E-04    0.28E-04    0.10E-06
   1     11     9.524    11.123    0.45E-04    0.12E-03    0.43E-06
  PAW_PBE S 17Jan2003                   :
 energy of atom  1       EATOM= -276.8230
 kinetic energy error for atom=    0.0051 (will be added to EATOM!!)
 PAW_PBE Mo 08Apr2002                   :
 energy of atom  2       EATOM= -217.5180
 kinetic energy error for atom=    0.0059 (will be added to EATOM!!)
 PAW_PBE W 08Apr2002                    :
 energy of atom  3       EATOM= -204.6100
 kinetic energy error for atom=    0.0057 (will be added to EATOM!!)
 
 
 POSCAR: convert from MoS2WS2C7.car  14:23:52 03/
  positions in direct lattice
  velocities in cartesian coordinates
 exchange correlation table for  LEXCH =        8
   RHO(1)=    0.500       N(1)  =     2000
   RHO(2)=  100.500       N(2)  =     4000
 


--------------------------------------------------------------------------------------------------------


 ion  position               nearest neighbor table
   1  0.658  0.348  0.692-   6 2.41   6 2.41   6 2.41
   2  0.658  0.347  0.536-   6 2.41   6 2.41   6 2.41
   3  0.998  0.999  0.385-   5 2.41   5 2.41   5 2.41
   4  0.999  0.999  0.229-   5 2.41   5 2.41   5 2.41
   5  0.665  0.333  0.307-   3 2.41   3 2.41   3 2.41   4 2.41   4 2.41   4 2.41
   6  0.992  0.014  0.614-   2 2.41   2 2.41   2 2.41   1 2.41   1 2.41   1 2.41
 

IMPORTANT INFORMATION: All symmetrisations will be switched off!
NOSYMM: (Re-)initialisation of all symmetry stuff for point group C_1.

 
 
 KPOINTS: HEX (hexagonal) M-G-K-M                 
  interpolating k-points between supplied coordinates
  k-points in reciprocal lattice


--------------------------------------------------------------------------------------------------------




 Dimension of arrays:
   k-points           NKPTS =     78   k-points in BZ     NKDIM =     78   number of bands    NBANDS=     40
   number of dos      NEDOS =  10000   number of ions     NIONS =      6
   non local maximal  LDIM  =      6   non local SUM 2l+1 LMDIM =     18
   total plane-waves  NPLWV =  50400
   max r-space proj   IRMAX =   4438   max aug-charges    IRDMAX=   6209
   dimension x,y,z NGX =    20 NGY =   20 NGZ =  126
   dimension x,y,z NGXF=    28 NGYF=   28 NGZF=  168
   support grid    NGXF=    28 NGYF=   28 NGZF=  168
   ions per type =               4   1   1
 NGX,Y,Z   is equivalent  to a cutoff of  10.43, 10.43, 10.47 a.u.
 NGXF,Y,Z  is equivalent  to a cutoff of  14.61, 14.61, 13.96 a.u.


 I would recommend the setting:
   dimension x,y,z NGX =    19 NGY =   19 NGZ =  122
 SYSTEM =  /home/tyz/presentwork/fanhan/stucture2  
 POSCAR =  convert from MoS2WS2C7.car  14:23:52 03/

 Startparameter for this run:
   NWRITE =      2    write-flag & timer
   PREC   = high      normal or accurate (medium, high low for compatibility)
   ISTART =      0    job   : 0-new  1-cont  2-samecut
   ICHARG =     11    charge: 1-file 2-atom 10-const
   ISPIN  =      1    spin polarized calculation?
   LNONCOLLINEAR =      F non collinear calculations
   LSORBIT =      F    spin-orbit coupling
   INIWAV =      1    electr: 0-lowe 1-rand  2-diag
   LASPH  =      F    aspherical Exc in radial PAW
   METAGGA=      F    non-selfconsistent MetaGGA calc.

 Electronic Relaxation 1
   ENCUT  =  350.0 eV  25.72 Ry    5.07 a.u.   4.86  4.86 30.51*2*pi/ulx,y,z
   ENINI  =  350.0     initial cutoff
   ENAUG  =  373.4 eV  augmentation charge cutoff
   NELM   =    100;   NELMIN=  4; NELMDL= -5     # of ELM steps 
   EDIFF  = 0.1E-03   stopping-criterion for ELM
   LREAL  =      T    real-space projection
   LCOMPAT=      F    compatible to vasp.4.4
   GGA_COMPAT  = T    GGA compatible to vasp.4.4-vasp.4.6
   LMAXPAW     = -100 max onsite density
   LMAXMIX     =    2 max onsite mixed and CHGCAR
   VOSKOWN=      0    Vosko Wilk Nusair interpolation
   ROPT   =   -0.00040  -0.00040  -0.00040
 Ionic relaxation
   EDIFFG = -.2E-01   stopping-criterion for IOM
   NSW    =      0    number of steps for IOM
   NBLOCK =      1;   KBLOCK =      1    inner block; outer block 
   IBRION =     -1    ionic relax: 0-MD 1-quasi-New 2-CG
   NFREE  =      1    steps in history (QN), initial steepest desc. (CG)
   ISIF   =      2    stress and relaxation
   IWAVPR =     10    prediction:  0-non 1-charg 2-wave 3-comb
   ISYM   =      0    0-nonsym 1-usesym 2-fastsym
   LCORR  =      T    Harris-Foulkes like correction to forces

   POTIM  = 0.5000    time-step for ionic-motion
   TEIN   =    0.0    initial temperature
   TEBEG  =    0.0;   TEEND  =   0.0 temperature during run
   SMASS  =  -3.00    Nose mass-parameter (am)
   estimated Nose-frequenzy (Omega)   =  0.10E-29 period in steps =****** mass=  -0.232E-27a.u.
   SCALEE = 1.0000    scale energy and forces
   NPACO  =    256;   APACO  = 16.0  distance and # of slots for P.C.
   PSTRESS=    0.0 pullay stress

  Mass of Ions in am
   POMASS =  32.07 95.94183.85
  Ionic Valenz
   ZVAL   =   6.00  6.00  6.00
  Atomic Wigner-Seitz radii
   RWIGS  =  -1.00 -1.00 -1.00
  virtual crystal weights 
   VCA    =   1.00  1.00  1.00
   NELECT =      36.0000    total number of electrons
   NUPDOWN=      -1.0000    fix difference up-down

 DOS related values:
   EMIN   = -30.00;   EMAX   = 45.00  energy-range for DOS
   EFERMI =   0.00
   ISMEAR =     0;   SIGMA  =   0.05  broadening in eV -4-tet -1-fermi 0-gaus

 Electronic relaxation 2 (details)
   IALGO  =     38    algorithm
   LDIAG  =      T    sub-space diagonalisation (order eigenvalues)
   LSUBROT=      T    optimize rotation matrix (better conditioning)
   TURBO    =      0    0=normal 1=particle mesh
   IRESTART =      0    0=no restart 2=restart with 2 vectors
   NREBOOT  =      0    no. of reboots
   NMIN     =      0    reboot dimension
   EREF     =   0.00    reference energy to select bands
   IMIX   =      4    mixing-type and parameters
     AMIX     =   0.40;   BMIX     =  1.00
     AMIX_MAG =   1.60;   BMIX_MAG =  1.00
     AMIN     =   0.10
     WC   =   100.;   INIMIX=   1;  MIXPRE=   1

 Intra band minimization:
   WEIMIN = 0.0000     energy-eigenvalue tresh-hold
   EBREAK =  0.63E-06  absolut break condition
   DEPER  =   0.30     relativ break condition  

   TIME   =   0.40     timestep for ELM

  volume/ion in A,a.u.               =      29.31       197.80
  Fermi-wavevector in a.u.,A,eV,Ry     =   0.964820  1.823245 12.665352  0.930877
  Thomas-Fermi vector in A             =   2.094484
 
 Write flags
   LWAVE  =      T    write WAVECAR
   LCHARG =      T    write CHGCAR
   LVTOT  =      T    write LOCPOT, total local potential
   LVHAR  =      F    write LOCPOT, Hartree potential only
   LELF   =      F    write electronic localiz. function (ELF)
   LORBIT =     11    0 simple, 1 ext, 2 COOP (PROOUT)


 Dipole corrections
   LMONO  =      F    monopole corrections only (constant potential shift)
   LDIPOL =      T    correct potential (dipole corrections)
   IDIPOL =      3    1-x, 2-y, 3-z, 4-all directions 
   EPSILON=  1.0000000 bulk dielectric constant

 Exchange correlation treatment:
   GGA     =    --    GGA type
   LEXCH   =     8    internal setting for exchange type
   VOSKOWN=      0    Vosko Wilk Nusair interpolation
   LHFCALC =     F    Hartree Fock is set to
   LHFONE  =     F    Hartree Fock one center treatment
   AEXX    =    0.0000 exact exchange contribution

 Linear response parameters
   LEPSILON=     F    determine dielectric tensor
   LRPA    =     F    only Hartree local field effects (RPA)
   LNABLA  =     F    use nabla operator in PAW spheres
   LVEL    =     F    velocity operator in full k-point grid
   LINTERFAST=   F  fast interpolation
   KINTER  =     0    interpolate to denser k-point grid
   CSHIFT  =0.1000    complex shift for real part using Kramers Kronig
   OMEGAMAX=  -1.0    maximum frequency
   RTIME   =    0.100 relaxation time in fs

 Orbital magnetization related:
   ORBITALMAG=     F  switch on orbital magnetization
   LCHIMAG   =     F  perturbation theory with respect to B field
   DQ        =  0.001000  dq finite difference perturbation B field



--------------------------------------------------------------------------------------------------------


 Static calculation
 charge density and potential remain constant during run
 non-spin polarized calculation
 Variant of blocked Davidson
 Davidson routine will perform the subspace rotation
 perform sub-space diagonalisation
    after iterative eigenvector-optimisation
 no mixing
 using additional bands           22
 real space projection scheme for non local part
 use partial core corrections
 calculate Harris-corrections to forces 
   (improved forces if not selfconsistent)
 use gradient corrections 
 WARNING: stress and forces are not correct
  (second derivative of E(xc) not defined)
 use of overlap-Matrix (Vanderbilt PP)
 Gauss-broadening in eV      SIGMA  =   0.05


--------------------------------------------------------------------------------------------------------


  energy-cutoff  :      350.00
  volume of cell :      175.87
      direct lattice vectors                 reciprocal lattice vectors
     3.186500000  0.000000000  0.000000000     0.313823945  0.181186339  0.000000000
    -1.593250000  2.759589949  0.000000000     0.000000000  0.362372678  0.000000000
     0.000000000  0.000000000 20.000000000     0.000000000  0.000000000  0.050000000

  length of vectors
     3.186500000  3.186500000 20.000000000     0.362372678  0.362372678  0.050000000


 
 k-points in units of 2pi/SCALE and weight: HEX (hexagonal) M-G-K-M                 
   0.15691197  0.09059317  0.00000000       0.013
   0.15063549  0.08696944  0.00000000       0.013
   0.14435901  0.08334572  0.00000000       0.013
   0.13808254  0.07972199  0.00000000       0.013
   0.13180606  0.07609826  0.00000000       0.013
   0.12552958  0.07247454  0.00000000       0.013
   0.11925310  0.06885081  0.00000000       0.013
   0.11297662  0.06522708  0.00000000       0.013
   0.10670014  0.06160336  0.00000000       0.013
   0.10042366  0.05797963  0.00000000       0.013
   0.09414718  0.05435590  0.00000000       0.013
   0.08787070  0.05073217  0.00000000       0.013
   0.08159423  0.04710845  0.00000000       0.013
   0.07531775  0.04348472  0.00000000       0.013
   0.06904127  0.03986099  0.00000000       0.013
   0.06276479  0.03623727  0.00000000       0.013
   0.05648831  0.03261354  0.00000000       0.013
   0.05021183  0.02898981  0.00000000       0.013
   0.04393535  0.02536609  0.00000000       0.013
   0.03765887  0.02174236  0.00000000       0.013
   0.03138239  0.01811863  0.00000000       0.013
   0.02510592  0.01449491  0.00000000       0.013
   0.01882944  0.01087118  0.00000000       0.013
   0.01255296  0.00724745  0.00000000       0.013
   0.00627648  0.00362373  0.00000000       0.013
   0.00000000  0.00000000  0.00000000       0.013
   0.00000000  0.00000000  0.00000000       0.013
   0.00418390  0.00724673  0.00000000       0.013
   0.00836780  0.01449346  0.00000000       0.013
   0.01255170  0.02174019  0.00000000       0.013
   0.01673560  0.02898692  0.00000000       0.013
   0.02091950  0.03623364  0.00000000       0.013
   0.02510340  0.04348037  0.00000000       0.013
   0.02928731  0.05072710  0.00000000       0.013
   0.03347121  0.05797383  0.00000000       0.013
   0.03765511  0.06522056  0.00000000       0.013
   0.04183901  0.07246729  0.00000000       0.013
   0.04602291  0.07971402  0.00000000       0.013
   0.05020681  0.08696075  0.00000000       0.013
   0.05439071  0.09420747  0.00000000       0.013
   0.05857461  0.10145420  0.00000000       0.013
   0.06275851  0.10870093  0.00000000       0.013
   0.06694241  0.11594766  0.00000000       0.013
   0.07112631  0.12319439  0.00000000       0.013
   0.07531021  0.13044112  0.00000000       0.013
   0.07949412  0.13768785  0.00000000       0.013
   0.08367802  0.14493458  0.00000000       0.013
   0.08786192  0.15218131  0.00000000       0.013
   0.09204582  0.15942803  0.00000000       0.013
   0.09622972  0.16667476  0.00000000       0.013
   0.10041362  0.17392149  0.00000000       0.013
   0.10459752  0.18116822  0.00000000       0.013
   0.10459752  0.18116822  0.00000000       0.013
   0.10669010  0.17754522  0.00000000       0.013
   0.10878268  0.17392222  0.00000000       0.013
   0.11087525  0.17029921  0.00000000       0.013
   0.11296783  0.16667621  0.00000000       0.013
   0.11506041  0.16305321  0.00000000       0.013
   0.11715299  0.15943021  0.00000000       0.013
   0.11924557  0.15580721  0.00000000       0.013
   0.12133815  0.15218420  0.00000000       0.013
   0.12343072  0.14856120  0.00000000       0.013
   0.12552330  0.14493820  0.00000000       0.013
   0.12761588  0.14131520  0.00000000       0.013
   0.12970846  0.13769220  0.00000000       0.013
   0.13180104  0.13406919  0.00000000       0.013
   0.13389361  0.13044619  0.00000000       0.013
   0.13598619  0.12682319  0.00000000       0.013
   0.13807877  0.12320019  0.00000000       0.013
   0.14017135  0.11957719  0.00000000       0.013
   0.14226393  0.11595418  0.00000000       0.013
   0.14435650  0.11233118  0.00000000       0.013
   0.14644908  0.10870818  0.00000000       0.013
   0.14854166  0.10508518  0.00000000       0.013
   0.15063424  0.10146218  0.00000000       0.013
   0.15272682  0.09783917  0.00000000       0.013
   0.15481939  0.09421617  0.00000000       0.013
   0.15691197  0.09059317  0.00000000       0.013
 
 k-points in reciprocal lattice and weights: HEX (hexagonal) M-G-K-M                 
   0.50000000  0.00000000  0.00000000       0.013
   0.48000000  0.00000000  0.00000000       0.013
   0.46000000  0.00000000  0.00000000       0.013
   0.44000000  0.00000000  0.00000000       0.013
   0.42000000  0.00000000  0.00000000       0.013
   0.40000000  0.00000000  0.00000000       0.013
   0.38000000  0.00000000  0.00000000       0.013
   0.36000000  0.00000000  0.00000000       0.013
   0.34000000  0.00000000  0.00000000       0.013
   0.32000000  0.00000000  0.00000000       0.013
   0.30000000  0.00000000  0.00000000       0.013
   0.28000000  0.00000000  0.00000000       0.013
   0.26000000  0.00000000  0.00000000       0.013
   0.24000000  0.00000000  0.00000000       0.013
   0.22000000  0.00000000  0.00000000       0.013
   0.20000000  0.00000000  0.00000000       0.013
   0.18000000  0.00000000  0.00000000       0.013
   0.16000000  0.00000000  0.00000000       0.013
   0.14000000  0.00000000  0.00000000       0.013
   0.12000000  0.00000000  0.00000000       0.013
   0.10000000  0.00000000  0.00000000       0.013
   0.08000000  0.00000000  0.00000000       0.013
   0.06000000  0.00000000  0.00000000       0.013
   0.04000000  0.00000000  0.00000000       0.013
   0.02000000  0.00000000  0.00000000       0.013
   0.00000000  0.00000000  0.00000000       0.013
   0.00000000  0.00000000  0.00000000       0.013
   0.01333200  0.01333200  0.00000000       0.013
   0.02666400  0.02666400  0.00000000       0.013
   0.03999600  0.03999600  0.00000000       0.013
   0.05332800  0.05332800  0.00000000       0.013
   0.06666000  0.06666000  0.00000000       0.013
   0.07999200  0.07999200  0.00000000       0.013
   0.09332400  0.09332400  0.00000000       0.013
   0.10665600  0.10665600  0.00000000       0.013
   0.11998800  0.11998800  0.00000000       0.013
   0.13332000  0.13332000  0.00000000       0.013
   0.14665200  0.14665200  0.00000000       0.013
   0.15998400  0.15998400  0.00000000       0.013
   0.17331600  0.17331600  0.00000000       0.013
   0.18664800  0.18664800  0.00000000       0.013
   0.19998000  0.19998000  0.00000000       0.013
   0.21331200  0.21331200  0.00000000       0.013
   0.22664400  0.22664400  0.00000000       0.013
   0.23997600  0.23997600  0.00000000       0.013
   0.25330800  0.25330800  0.00000000       0.013
   0.26664000  0.26664000  0.00000000       0.013
   0.27997200  0.27997200  0.00000000       0.013
   0.29330400  0.29330400  0.00000000       0.013
   0.30663600  0.30663600  0.00000000       0.013
   0.31996800  0.31996800  0.00000000       0.013
   0.33330000  0.33330000  0.00000000       0.013
   0.33330000  0.33330000  0.00000000       0.013
   0.33996800  0.31996800  0.00000000       0.013
   0.34663600  0.30663600  0.00000000       0.013
   0.35330400  0.29330400  0.00000000       0.013
   0.35997200  0.27997200  0.00000000       0.013
   0.36664000  0.26664000  0.00000000       0.013
   0.37330800  0.25330800  0.00000000       0.013
   0.37997600  0.23997600  0.00000000       0.013
   0.38664400  0.22664400  0.00000000       0.013
   0.39331200  0.21331200  0.00000000       0.013
   0.39998000  0.19998000  0.00000000       0.013
   0.40664800  0.18664800  0.00000000       0.013
   0.41331600  0.17331600  0.00000000       0.013
   0.41998400  0.15998400  0.00000000       0.013
   0.42665200  0.14665200  0.00000000       0.013
   0.43332000  0.13332000  0.00000000       0.013
   0.43998800  0.11998800  0.00000000       0.013
   0.44665600  0.10665600  0.00000000       0.013
   0.45332400  0.09332400  0.00000000       0.013
   0.45999200  0.07999200  0.00000000       0.013
   0.46666000  0.06666000  0.00000000       0.013
   0.47332800  0.05332800  0.00000000       0.013
   0.47999600  0.03999600  0.00000000       0.013
   0.48666400  0.02666400  0.00000000       0.013
   0.49333200  0.01333200  0.00000000       0.013
   0.50000000  0.00000000  0.00000000       0.013
 
 position of ions in fractional coordinates (direct lattice) 
   0.65834301  0.34755466  0.69216461
   0.65834546  0.34741145  0.53591044
   0.99847749  0.99947540  0.38500878
   0.99862517  0.99934263  0.22909419
   0.66513272  0.33269380  0.30707782
   0.99167133  0.01413161  0.61396283
 
 position of ions in cartesian coordinates  (Angst):
   1.54406854  0.95910835 13.84329226
   1.54430451  0.95871313 10.71820873
   1.58923433  2.75814227  7.70017564
   1.58991647  2.75777587  4.58188372
   1.58938101  0.91809846  6.14155641
   3.13744550  0.03899744 12.27925657
 


--------------------------------------------------------------------------------------------------------


 k-point  1 :  0.50000.00000.0000  plane waves:    2628
 k-point  2 :  0.48000.00000.0000  plane waves:    2618
 k-point  3 :  0.46000.00000.0000  plane waves:    2618
 k-point  4 :  0.44000.00000.0000  plane waves:    2622
 k-point  5 :  0.42000.00000.0000  plane waves:    2618
 k-point  6 :  0.40000.00000.0000  plane waves:    2604
 k-point  7 :  0.38000.00000.0000  plane waves:    2610
 k-point  8 :  0.36000.00000.0000  plane waves:    2614
 k-point  9 :  0.34000.00000.0000  plane waves:    2622
 k-point 10 :  0.32000.00000.0000  plane waves:    2610
 k-point 11 :  0.30000.00000.0000  plane waves:    2612
 k-point 12 :  0.28000.00000.0000  plane waves:    2618
 k-point 13 :  0.26000.00000.0000  plane waves:    2614
 k-point 14 :  0.24000.00000.0000  plane waves:    2612
 k-point 15 :  0.22000.00000.0000  plane waves:    2604
 k-point 16 :  0.20000.00000.0000  plane waves:    2603
 k-point 17 :  0.18000.00000.0000  plane waves:    2597
 k-point 18 :  0.16000.00000.0000  plane waves:    2583
 k-point 19 :  0.14000.00000.0000  plane waves:    2585
 k-point 20 :  0.12000.00000.0000  plane waves:    2601
 k-point 21 :  0.10000.00000.0000  plane waves:    2601
 k-point 22 :  0.08000.00000.0000  plane waves:    2601
 k-point 23 :  0.06000.00000.0000  plane waves:    2589
 k-point 24 :  0.04000.00000.0000  plane waves:    2585
 k-point 25 :  0.02000.00000.0000  plane waves:    2581
 k-point 26 :  0.00000.00000.0000  plane waves:    2581
 k-point 27 :  0.00000.00000.0000  plane waves:    2581
 k-point 28 :  0.01330.01330.0000  plane waves:    2585
 k-point 29 :  0.02670.02670.0000  plane waves:    2587
 k-point 30 :  0.04000.04000.0000  plane waves:    2587
 k-point 31 :  0.05330.05330.0000  plane waves:    2587
 k-point 32 :  0.06670.06670.0000  plane waves:    2595
 k-point 33 :  0.08000.08000.0000  plane waves:    2597
 k-point 34 :  0.09330.09330.0000  plane waves:    2611
 k-point 35 :  0.10670.10670.0000  plane waves:    2605
 k-point 36 :  0.12000.12000.0000  plane waves:    2603
 k-point 37 :  0.13330.13330.0000  plane waves:    2585
 k-point 38 :  0.14670.14670.0000  plane waves:    2587
 k-point 39 :  0.16000.16000.0000  plane waves:    2591
 k-point 40 :  0.17330.17330.0000  plane waves:    2609
 k-point 41 :  0.18660.18660.0000  plane waves:    2609
 k-point 42 :  0.20000.20000.0000  plane waves:    2607
 k-point 43 :  0.21330.21330.0000  plane waves:    2607
 k-point 44 :  0.22660.22660.0000  plane waves:    2611
 k-point 45 :  0.24000.24000.0000  plane waves:    2621
 k-point 46 :  0.25330.25330.0000  plane waves:    2629
 k-point 47 :  0.26660.26660.0000  plane waves:    2641
 k-point 48 :  0.28000.28000.0000  plane waves:    2637
 k-point 49 :  0.29330.29330.0000  plane waves:    2645
 k-point 50 :  0.30660.30660.0000  plane waves:    2653
 k-point 51 :  0.32000.32000.0000  plane waves:    2655
 k-point 52 :  0.33330.33330.0000  plane waves:    2649
 k-point 53 :  0.33330.33330.0000  plane waves:    2649
 k-point 54 :  0.34000.32000.0000  plane waves:    2649
 k-point 55 :  0.34660.30660.0000  plane waves:    2659
 k-point 56 :  0.35330.29330.0000  plane waves:    2651
 k-point 57 :  0.36000.28000.0000  plane waves:    2651
 k-point 58 :  0.36660.26660.0000  plane waves:    2651
 k-point 59 :  0.37330.25330.0000  plane waves:    2647
 k-point 60 :  0.38000.24000.0000  plane waves:    2639
 k-point 61 :  0.38660.22660.0000  plane waves:    2633
 k-point 62 :  0.39330.21330.0000  plane waves:    2639
 k-point 63 :  0.40000.20000.0000  plane waves:    2633
 k-point 64 :  0.40660.18660.0000  plane waves:    2647
 k-point 65 :  0.41330.17330.0000  plane waves:    2649
 k-point 66 :  0.42000.16000.0000  plane waves:    2655
 k-point 67 :  0.42670.14670.0000  plane waves:    2645
 k-point 68 :  0.43330.13330.0000  plane waves:    2630
 k-point 69 :  0.44000.12000.0000  plane waves:    2630
 k-point 70 :  0.44670.10670.0000  plane waves:    2624
 k-point 71 :  0.45330.09330.0000  plane waves:    2628
 k-point 72 :  0.46000.08000.0000  plane waves:    2618
 k-point 73 :  0.46670.06670.0000  plane waves:    2614
 k-point 74 :  0.47330.05330.0000  plane waves:    2622
 k-point 75 :  0.48000.04000.0000  plane waves:    2622
 k-point 76 :  0.48670.02670.0000  plane waves:    2618
 k-point 77 :  0.49330.01330.0000  plane waves:    2630
 k-point 78 :  0.50000.00000.0000  plane waves:    2628

 maximum and minimum number of plane-waves per node :       232      206

 maximum number of plane-waves:      2659
 maximum index in each direction: 
   IXMAX=    4   IYMAX=    4   IZMAX=   30
   IXMIN=   -5   IYMIN=   -5   IZMIN=  -30

 NGX is ok and might be reduce to  20
 NGY is ok and might be reduce to  20
 NGZ is ok and might be reduce to 122

 real space projection operators:
  total allocation   :       1566.23 KBytes
  max/ min on nodes  :        166.88         59.66


 parallel 3D FFT for wavefunctions:
    minimum data exchange during FFTs selected (reduces bandwidth)
 parallel 3D FFT for charge:
    minimum data exchange during FFTs selected (reduces bandwidth)


 total amount of memory used by VASP on root node    34486. kBytes
========================================================================

   base      :      30000. kBytes
   nonlr-proj:        653. kBytes
   fftplans  :        318. kBytes
   grid      :        505. kBytes
   one-center:         15. kBytes
   wavefun   :       2995. kBytes
 
 initial charge density was supplied:
 number of electron      36.0000008 magnetization 
 keeping initial charge density in first step


--------------------------------------------------------------------------------------------------------


 Maximum index for non-local projection operator          470
 Maximum index for augmentation-charges          320 (set IRDMAX)


--------------------------------------------------------------------------------------------------------


 First call to EWALD:  gamma=   0.316
 Maximum number of real-space cells 5x 5x 1
 Maximum number of reciprocal cells 2x 2x 9

    FEWALD:  cpu time    0.00: real time    0.00


----------------------------------------- Iteration    1(   1)  ---------------------------------------


    POTLOK:  cpu time    0.01: real time    0.01
    SETDIJ:  cpu time    0.00: real time    0.00
     EDDAV:  cpu time    4.07: real time    4.07
       DOS:  cpu time    0.02: real time    0.02
    --------------------------------------------
      LOOP:  cpu time    4.10: real time    4.11

 eigenvalue-minimisations  :  6256
 total energy-change (2. order) : 0.1476657E+03  (-0.1137297E+04)
 number of electron      36.0000008 magnetization 
 augmentation part       36.0000008 magnetization 

 DIPCOR: dipole corrections for dipol
 direction  3 min pos   162,
 dipolmoment           0.000000      0.000000     -0.001873 electrons x Angstroem
 Tr[quadrupol]       -36.629968

 energy correction for charged system         0.000000 eV
 dipol+quadrupol energy correction           -0.000002 eV
 added-field ion interaction          0.003057 eV  (added to PSCEN)


 Free energy of the ion-electron system (eV)
  ---------------------------------------------------
  alpha Z        PSCENC =        68.88548007
  Ewald energy   TEWEN  =      2391.37406744
  -1/2 Hartree   DENC   =     -3966.99544315
  -exchange  EXHF       =         0.00000000
  -V(xc)+E(xc)   XCENC  =       -56.80133237
  PAW double counting   =       932.26329835     -792.66665198
  entropy T*S    EENTRO =        -0.00473870
  eigenvalues    EBANDS =        42.22287378
  atomic energy  EATOM  =      1529.38811094
  ---------------------------------------------------
  free energy    TOTEN  =       147.66566438 eV

  energy without entropy =      147.67040308  energy(sigma->0) =      147.66803373


--------------------------------------------------------------------------------------------------------


 E-fermi :   8.8395     XC(G=0):  -7.1420     alpha+bet : -7.2384


 k-point   1 :       0.5000    0.0000    0.0000
  band No.  band energies     occupation 
      1      -6.2665      2.00000
      2      -5.7958      2.00000
      3      -5.4709      2.00000
      4      -4.9745      2.00000
      5      -2.4566      2.00000
      6      -1.7865      2.00000
      7      -0.8670      2.00000
      8      -0.2713      2.00000
      9       0.5083      2.00000
     10       1.1868      2.00000
     11       2.5090      2.00000
     12       3.6563      2.00000
     13       4.1565      2.00000
     14       4.8886      2.00000
     15       5.6288      2.00000
     16       6.1519      2.00000
     17       7.2825      2.00000
     18       7.8684      2.00000
     19       9.1831      0.00000
     20       9.4357      0.00000
     21      10.0635      0.00000
     22      10.8897      0.00000
     23      11.5588      0.00000
     24      12.0042      0.00000
     25      12.4567      0.00000
     26      12.7809      0.00000
     27      13.4593      0.00000
     28      13.7441      0.00000
     29      14.4474      0.00000
     30      14.8757      0.00000
     31      15.7870      0.00000
     32      16.5471      0.00000
     33      16.8386      0.00000
     34      17.4720      0.00000
     35      18.8778      0.00000
     36      19.9308      0.00000
     37      20.3315      0.00000
     38      21.7848      0.00000
     39      24.2307      0.00000
     40      25.2338      0.00000

 k-point   2 :       0.4800    0.0000    0.0000
  band No.  band energies     occupation 
      1      -6.3319      2.00000
      2      -5.8072      2.00000
      3      -5.2075      2.00000
      4      -3.4904      2.00000
      5      -2.4014      2.00000
      6      -1.8715      2.00000
      7      -0.5770      2.00000
      8       0.2340      2.00000
      9       0.5395      2.00000
     10       2.3954      2.00000
     11       3.1893      2.00000
     12       3.8741      2.00000
     13       4.2747      2.00000
     14       5.6409      2.00000
     15       5.8900      2.00000
     16       6.8628      2.00000
     17       8.1060      2.00000
     18       9.1324      0.00000
     19       9.4886      0.00000
     20       9.8968      0.00000
     21      10.3950      0.00000
     22      11.2905      0.00000
     23      11.7803      0.00000
     24      12.2225      0.00000
     25      12.4991      0.00000
     26      12.9992      0.00000
     27      13.2590      0.00000
     28      13.9452      0.00000
     29      14.6513      0.00000
     30      15.4896      0.00000
     31      16.0079      0.00000
     32      16.5823      0.00000
     33      17.7166      0.00000
     34      18.7499      0.00000
     35      19.7942      0.00000
     36      20.2459      0.00000
     37      21.4875      0.00000
     38      22.3488      0.00000
     39      23.2581      0.00000
     40      24.4288      0.00000

 k-point   3 :       0.4600    0.0000    0.0000
  band No.  band energies     occupation 
      1      -6.5680      2.00000
      2      -5.8592      2.00000
      3      -5.3265      2.00000
      4      -4.5565      2.00000
      5      -2.4502      2.00000
      6      -1.6740      2.00000
      7      -0.2036      2.00000
      8       0.2793      2.00000
      9       1.8003      2.00000
     10       2.4953      2.00000
     11       3.2633      2.00000
     12       3.8327      2.00000
     13       4.4195      2.00000
     14       4.6535      2.00000
     15       5.7558      2.00000
     16       6.4239      2.00000
     17       6.9683      2.00000
     18       8.1176      2.00000
     19       9.2672      0.00000
     20       9.9081      0.00000
     21      10.3395      0.00000
     22      10.8311      0.00000
     23      11.6345      0.00000
     24      12.0531      0.00000
     25      12.2159      0.00000
     26      12.7493      0.00000
     27      13.3967      0.00000
     28      14.0016      0.00000
     29      14.6279      0.00000
     30      15.6577      0.00000
     31      16.1766      0.00000
     32      16.6019      0.00000
     33      17.9986      0.00000
     34      18.9999      0.00000
     35      19.8246      0.00000
     36      21.0251      0.00000
     37      22.3324      0.00000
     38      22.5895      0.00000
     39      23.5695      0.00000
     40      26.0370      0.00000

 k-point   4 :       0.4400    0.0000    0.0000
  band No.  band energies     occupation 
      1      -7.0795      2.00000
      2      -6.2682      2.00000
      3      -5.7241      2.00000
      4      -5.1478      2.00000
      5      -2.6554      2.00000
      6      -1.5756      2.00000
      7      -0.6098      2.00000
      8      -0.4130      2.00000
      9       0.9292      2.00000
     10       2.1824      2.00000
     11       2.9209      2.00000
     12       3.3741      2.00000
     13       3.8523      2.00000
     14       4.5793      2.00000
     15       5.6066      2.00000
     16       6.2484      2.00000
     17       7.6150      2.00000
     18       8.3167      2.00000
     19       8.9196      0.02346
     20       9.9557      0.00000
     21      10.6229      0.00000
     22      10.9353      0.00000
     23      11.5962      0.00000
     24      11.8575      0.00000
     25      12.6417      0.00000
     26      13.0918      0.00000
     27      13.4534      0.00000
     28      14.5141      0.00000
     29      15.0715      0.00000
     30      15.5488      0.00000
     31      16.3629      0.00000
     32      17.0095      0.00000
     33      17.7630      0.00000
     34      17.9309      0.00000
     35      19.3982      0.00000
     36      20.3395      0.00000
     37      21.5852      0.00000
     38      22.6420      0.00000
     39      23.3488      0.00000
     40      25.3781      0.00000

 k-point   5 :       0.4200    0.0000    0.0000
  band No.  band energies     occupation 
      1      -7.0120      2.00000
      2      -6.5255      2.00000
      3      -5.5844      2.00000
      4      -4.7935      2.00000
      5      -2.2118      2.00000
      6      -1.7002      2.00000
      7      -0.4386      2.00000
      8       0.1481      2.00000
      9       0.6860      2.00000
     10       1.3219      2.00000
     11       3.2747      2.00000
     12       4.0804      2.00000
     13       4.3898      2.00000
     14       4.8759      2.00000
     15       5.8153      2.00000
     16       6.4142      2.00000
     17       7.4230      2.00000
     18       8.5063      2.00000
     19       9.6594      0.00000
     20      10.0173      0.00000
     21      10.5900      0.00000
     22      11.3460      0.00000
     23      11.5850      0.00000
     24      12.0444      0.00000
     25      12.5858      0.00000
     26      13.5514      0.00000
     27      13.9287      0.00000
     28      14.2308      0.00000
     29      15.0487      0.00000
     30      15.4228      0.00000
     31      16.5654      0.00000
     32      17.5053      0.00000
     33      18.3881      0.00000
     34      19.1212      0.00000
     35      19.8935      0.00000
     36      20.6882      0.00000
     37      21.7665      0.00000
     38      22.1702      0.00000
     39      23.2831      0.00000
     40      24.1803      0.00000

 k-point   6 :       0.4000    0.0000    0.0000
  band No.  band energies     occupation 
      1      -7.1623      2.00000
      2      -6.3936      2.00000
      3      -5.2395      2.00000
      4      -4.7710      2.00000
      5      -1.5607      2.00000
      6      -1.2979      2.00000
      7      -0.5062      2.00000
      8       0.0331      2.00000
      9       1.0295      2.00000
     10       1.4441      2.00000
     11       2.9397      2.00000
     12       3.5934      2.00000
     13       4.0466      2.00000
     14       4.4187      2.00000
     15       5.4817      2.00000
     16       6.5784      2.00000
     17       6.8960      2.00000
     18       8.0699      2.00000
     19       9.4440      0.00000
     20       9.7231      0.00000
     21      10.7105      0.00000
     22      11.1130      0.00000
     23      11.3909      0.00000
     24      12.1058      0.00000
     25      12.3376      0.00000
     26      13.3896      0.00000
     27      13.6187      0.00000
     28      14.4282      0.00000
     29      14.7120      0.00000
     30      15.5052      0.00000
     31      16.3348      0.00000
     32      17.6378      0.00000
     33      18.0025      0.00000
     34      18.9235      0.00000
     35      19.8143      0.00000
     36      20.5401      0.00000
     37      21.7360      0.00000
     38      22.5533      0.00000
     39      23.1646      0.00000
     40      25.3299      0.00000

 k-point   7 :       0.3800    0.0000    0.0000
  band No.  band energies     occupation 
      1      -7.6047      2.00000
      2      -6.5096      2.00000
      3      -5.3802      2.00000
      4      -4.8812      2.00000
      5      -1.4008      2.00000
      6      -0.7497      2.00000
      7      -0.3454      2.00000
      8       0.3438      2.00000
      9       0.9925      2.00000
     10       2.1221      2.00000
     11       3.1406      2.00000
     12       4.0353      2.00000
     13       4.5625      2.00000
     14       5.0961      2.00000
     15       5.9046      2.00000
     16       6.1135      2.00000
     17       7.0577      2.00000
     18       8.1291      2.00000
     19       8.9062      0.05900
     20       9.9591      0.00000
     21      10.3941      0.00000
     22      10.6399      0.00000
     23      11.0909      0.00000
     24      11.5450      0.00000
     25      12.8114      0.00000
     26      13.2213      0.00000
     27      14.0320      0.00000
     28      14.6193      0.00000
     29      15.1738      0.00000
     30      15.8033      0.00000
     31      17.0996      0.00000
     32      17.4747      0.00000
     33      18.1970      0.00000
     34      18.5429      0.00000
     35      19.7071      0.00000
     36      19.9531      0.00000
     37      21.0305      0.00000
     38      22.4757      0.00000
     39      23.4454      0.00000
     40      24.7340      0.00000

 k-point   8 :       0.3600    0.0000    0.0000
  band No.  band energies     occupation 
      1      -7.2163      2.00000
      2      -6.8279      2.00000
      3      -5.8881      2.00000
      4      -5.1353      2.00000
      5      -1.5448      2.00000
      6      -0.9208      2.00000
      7      -0.3255      2.00000
      8       0.2380      2.00000
      9       1.0198      2.00000
     10       1.6454      2.00000
     11       3.0737      2.00000
     12       3.9559      2.00000
     13       4.4406      2.00000
     14       4.6721      2.00000
     15       5.8217      2.00000
     16       6.8762      2.00000
     17       7.6246      2.00000
     18       8.2130      2.00000
     19       8.7033      1.99988
     20      10.1716      0.00000
     21      10.4461      0.00000
     22      11.0039      0.00000
     23      11.7900      0.00000
     24      12.1926      0.00000
     25      12.3125      0.00000
     26      13.1872      0.00000
     27      14.0540      0.00000
     28      14.8376      0.00000
     29      15.7316      0.00000
     30      16.4313      0.00000
     31      16.9063      0.00000
     32      17.8087      0.00000
     33      18.5470      0.00000
     34      19.1491      0.00000
     35      20.0977      0.00000
     36      20.6963      0.00000
     37      21.7055      0.00000
     38      22.4369      0.00000
     39      23.1331      0.00000
     40      26.6085      0.00000

 k-point   9 :       0.3400    0.0000    0.0000
  band No.  band energies     occupation 
      1      -8.0758      2.00000
      2      -7.1102      2.00000
      3      -5.8064      2.00000
      4      -5.0187      2.00000
      5      -1.3481      2.00000
      6       0.0129      2.00000
      7       0.2813      2.00000
      8       0.9606      2.00000
      9       1.5222      2.00000
     10       1.8882      2.00000
     11       3.4553      2.00000
     12       3.7561      2.00000
     13       4.6367      2.00000
     14       5.2222      2.00000
     15       5.9036      2.00000
     16       6.4042      2.00000
     17       8.0759      2.00000
     18       8.3699      2.00000
     19       8.9423      0.00363
     20       9.7925      0.00000
     21      10.4023      0.00000
     22      11.1095      0.00000
     23      11.4437      0.00000
     24      12.4481      0.00000
     25      13.0443      0.00000
     26      13.3362      0.00000
     27      14.1184      0.00000
     28      14.9990      0.00000
     29      15.8007      0.00000
     30      16.6534      0.00000
     31      16.8969      0.00000
     32      17.5349      0.00000
     33      18.6155      0.00000
     34      19.6423      0.00000
     35      19.9263      0.00000
     36      21.9244      0.00000
     37      22.3101      0.00000
     38      22.8100      0.00000
     39      24.9402      0.00000
     40      26.4497      0.00000

 k-point  10 :       0.3200    0.0000    0.0000
  band No.  band energies     occupation 
      1      -8.2091      2.00000
      2      -7.8254      2.00000
      3      -6.7228      2.00000
      4      -5.7675      2.00000
      5      -1.4165      2.00000
      6      -0.5779      2.00000
      7       0.3332      2.00000
      8       0.9310      2.00000
      9       1.3756      2.00000
     10       1.9792      2.00000
     11       2.8057      2.00000
     12       3.8919      2.00000
     13       4.6698      2.00000
     14       5.0938      2.00000
     15       5.6333      2.00000
     16       6.2284      2.00000
     17       7.4998      2.00000
     18       8.5110      2.00000
     19       9.1413      0.00000
     20       9.7377      0.00000
     21      10.2976      0.00000
     22      11.0858      0.00000
     23      11.9037      0.00000
     24      12.5248      0.00000
     25      13.0463      0.00000
     26      13.7249      0.00000
     27      14.5607      0.00000
     28      15.0563      0.00000
     29      15.8313      0.00000
     30      16.4510      0.00000
     31      16.8935      0.00000
     32      17.9063      0.00000
     33      18.4383      0.00000
     34      19.3899      0.00000
     35      20.4091      0.00000
     36      21.2050      0.00000
     37      22.0952      0.00000
     38      22.6163      0.00000
     39      24.1710      0.00000
     40      25.9144      0.00000

 k-point  11 :       0.3000    0.0000    0.0000
  band No.  band energies     occupation 
      1      -8.6745      2.00000
      2      -7.9742      2.00000
      3      -6.9445      2.00000
      4      -6.2240      2.00000
      5      -1.2808      2.00000
      6      -0.5180      2.00000
      7      -0.2146      2.00000
      8       0.7585      2.00000
      9       1.1084      2.00000
     10       2.4497      2.00000
     11       3.2467      2.00000
     12       4.0383      2.00000
     13       4.4773      2.00000
     14       4.7586      2.00000
     15       5.4494      2.00000
     16       6.0634      2.00000
     17       7.0368      2.00000
     18       8.2136      2.00000
     19       8.8665      0.44379
     20       9.8446      0.00000
     21      10.1926      0.00000
     22      10.7709      0.00000
     23      11.1077      0.00000
     24      12.1351      0.00000
     25      12.6642      0.00000
     26      13.7253      0.00000
     27      14.4105      0.00000
     28      15.3883      0.00000
     29      16.0050      0.00000
     30      16.8588      0.00000
     31      17.6311      0.00000
     32      17.8928      0.00000
     33      18.8400      0.00000
     34      19.0634      0.00000
     35      19.7731      0.00000
     36      20.4790      0.00000
     37      21.9299      0.00000
     38      22.2161      0.00000
     39      23.0685      0.00000
     40      24.5057      0.00000

 k-point  12 :       0.2800    0.0000    0.0000
  band No.  band energies     occupation 
      1      -7.8591      2.00000
      2      -7.4623      2.00000
      3      -6.4276      2.00000
      4      -5.3339      2.00000
      5      -1.0252      2.00000
      6      -0.1100      2.00000
      7       0.3045      2.00000
      8       1.5426      2.00000
      9       1.9950      2.00000
     10       2.3133      2.00000
     11       2.7470      2.00000
     12       3.8996      2.00000
     13       4.3654      2.00000
     14       5.0089      2.00000
     15       5.4699      2.00000
     16       5.8362      2.00000
     17       7.3342      2.00000
     18       8.4163      2.00000
     19       9.4423      0.00000
     20       9.8074      0.00000
     21      10.4205      0.00000
     22      10.9712      0.00000
     23      12.1202      0.00000
     24      12.8554      0.00000
     25      13.1244      0.00000
     26      14.2218      0.00000
     27      14.4045      0.00000
     28      15.3752      0.00000
     29      15.8966      0.00000
     30      17.0034      0.00000
     31      17.4815      0.00000
     32      17.7136      0.00000
     33      19.0218      0.00000
     34      19.7551      0.00000
     35      20.8726      0.00000
     36      21.2294      0.00000
     37      22.3225      0.00000
     38      23.6462      0.00000
     39      25.0443      0.00000
     40      26.1404      0.00000

 k-point  13 :       0.2600    0.0000    0.0000
  band No.  band energies     occupation 
      1      -8.5383      2.00000
      2      -7.9378      2.00000
      3      -6.5556      2.00000
      4      -5.1381      2.00000
      5      -0.7990      2.00000
      6      -0.5166      2.00000
      7       0.2580      2.00000
      8       1.0727      2.00000
      9       1.9880      2.00000
     10       2.5889      2.00000
     11       2.9105      2.00000
     12       3.6588      2.00000
     13       4.4700      2.00000
     14       5.2061      2.00000
     15       5.8985      2.00000
     16       6.0933      2.00000
     17       7.1333      2.00000
     18       7.9340      2.00000
     19       8.8089      1.61241
     20       9.5330      0.00000
     21       9.8886      0.00000
     22      10.7151      0.00000
     23      11.3782      0.00000
     24      12.4214      0.00000
     25      13.1084      0.00000
     26      14.2278      0.00000
     27      14.9491      0.00000
     28      15.7623      0.00000
     29      16.1558      0.00000
     30      16.7978      0.00000
     31      17.8575      0.00000
     32      18.3415      0.00000
     33      19.1862      0.00000
     34      19.9562      0.00000
     35      20.6827      0.00000
     36      21.7257      0.00000
     37      22.4732      0.00000
     38      23.4254      0.00000
     39      24.4699      0.00000
     40      25.6168      0.00000

 k-point  14 :       0.2400    0.0000    0.0000
  band No.  band energies     occupation 
      1      -7.9839      2.00000
      2      -7.4565      2.00000
      3      -6.0319      2.00000
      4      -4.8493      2.00000
      5      -0.6531      2.00000
      6       0.3749      2.00000
      7       1.0544      2.00000
      8       2.1118      2.00000
      9       3.0119      2.00000
     10       3.7290      2.00000
     11       4.3637      2.00000
     12       4.6444      2.00000
     13       4.8855      2.00000
     14       5.3430      2.00000
     15       6.5127      2.00000
     16       7.7593      2.00000
     17       8.4322      2.00000
     18       9.1401      0.00000
     19       9.2838      0.00000
     20       9.7543      0.00000
     21      10.7756      0.00000
     22      10.9480      0.00000
     23      11.7135      0.00000
     24      12.6297      0.00000
     25      13.7031      0.00000
     26      14.5162      0.00000
     27      15.1361      0.00000
     28      15.6801      0.00000
     29      16.7712      0.00000
     30      17.4829      0.00000
     31      17.9750      0.00000
     32      18.8042      0.00000
     33      19.5418      0.00000
     34      20.4499      0.00000
     35      21.2557      0.00000
     36      21.9299      0.00000
     37      23.7646      0.00000
     38      24.2564      0.00000
     39      24.8748      0.00000
     40      27.2177      0.00000

 k-point  15 :       0.2200    0.0000    0.0000
  band No.  band energies     occupation 
      1      -9.5115      2.00000
      2      -8.0407      2.00000
      3      -6.4061      2.00000
      4      -5.8574      2.00000
      5      -0.8953      2.00000
      6      -0.0684      2.00000
      7       1.1858      2.00000
      8       1.7143      2.00000
      9       2.3307      2.00000
     10       3.2419      2.00000
     11       3.9876      2.00000
     12       4.2691      2.00000
     13       5.1158      2.00000
     14       5.6285      2.00000
     15       6.8076      2.00000
     16       7.4780      2.00000
     17       8.1380      2.00000
     18       8.7725      1.94160
     19       9.3511      0.00000
     20       9.7659      0.00000
     21      10.2779      0.00000
     22      11.7760      0.00000
     23      12.3488      0.00000
     24      12.9425      0.00000
     25      13.3776      0.00000
     26      14.4390      0.00000
     27      14.8572      0.00000
     28      16.0941      0.00000
     29      16.9657      0.00000
     30      17.7493      0.00000
     31      18.3944      0.00000
     32      19.2643      0.00000
     33      19.9554      0.00000
     34      20.3723      0.00000
     35      21.5314      0.00000
     36      22.0722      0.00000
     37      23.4658      0.00000
     38      24.7505      0.00000
     39      25.5723      0.00000
     40      26.4686      0.00000

 k-point  16 :       0.2000    0.0000    0.0000
  band No.  band energies     occupation 
      1      -9.9492      2.00000
      2      -8.4626      2.00000
      3      -7.2529      2.00000
      4      -5.8914      2.00000
      5      -0.9810      2.00000
      6      -0.2384      2.00000
      7       1.6228      2.00000
      8       2.1851      2.00000
      9       2.4421      2.00000
     10       3.8451      2.00000
     11       4.1590      2.00000
     12       4.6542      2.00000
     13       5.3332      2.00000
     14       6.2664      2.00000
     15       6.7530      2.00000
     16       7.3773      2.00000
     17       8.1548      2.00000
     18       8.6256      2.00000
     19       9.0560      0.00000
     20      10.1621      0.00000
     21      11.1178      0.00000
     22      11.4521      0.00000
     23      12.0800      0.00000
     24      12.6284      0.00000
     25      13.1171      0.00000
     26      14.4326      0.00000
     27      14.9505      0.00000
     28      16.2309      0.00000
     29      17.0018      0.00000
     30      17.8424      0.00000
     31      18.1916      0.00000
     32      19.3513      0.00000
     33      19.8934      0.00000
     34      20.9514      0.00000
     35      21.7701      0.00000
     36      22.6980      0.00000
     37      23.6459      0.00000
     38      24.5123      0.00000
     39      25.6135      0.00000
     40      26.7944      0.00000

 k-point  17 :       0.1800    0.0000    0.0000
  band No.  band energies     occupation 
      1      -9.0148      2.00000
      2      -8.5300      2.00000
      3      -6.3784      2.00000
      4      -5.6634      2.00000
      5      -1.1262      2.00000
      6       0.1555      2.00000
      7       1.6817      2.00000
      8       2.6819      2.00000
      9       2.8601      2.00000
     10       3.8382      2.00000
     11       4.2677      2.00000
     12       5.1194      2.00000
     13       5.5803      2.00000
     14       6.1005      2.00000
     15       6.7430      2.00000
     16       7.4340      2.00000
     17       7.9422      2.00000
     18       8.4360      2.00000
     19       8.8358      1.08139
     20      10.3502      0.00000
     21      10.8785      0.00000
     22      11.5187      0.00000
     23      12.8820      0.00000
     24      13.5822      0.00000
     25      14.4327      0.00000
     26      14.9485      0.00000
     27      15.2734      0.00000
     28      15.7049      0.00000
     29      16.4825      0.00000
     30      17.1057      0.00000
     31      18.4420      0.00000
     32      19.5462      0.00000
     33      21.0737      0.00000
     34      22.0096      0.00000
     35      22.7556      0.00000
     36      23.3016      0.00000
     37      24.1920      0.00000
     38      24.9165      0.00000
     39      25.9992      0.00000
     40      26.9145      0.00000

 k-point  18 :       0.1600    0.0000    0.0000
  band No.  band energies     occupation 
      1     -10.1107      2.00000
      2      -8.5221      2.00000
      3      -6.6399      2.00000
      4      -6.1262      2.00000
      5      -1.3146      2.00000
      6      -0.1284      2.00000
      7       1.9699      2.00000
      8       2.7214      2.00000
      9       3.5492      2.00000
     10       3.9400      2.00000
     11       4.1197      2.00000
     12       4.8593      2.00000
     13       5.3000      2.00000
     14       6.2003      2.00000
     15       6.8041      2.00000
     16       7.1811      2.00000
     17       7.8811      2.00000
     18       8.7445      1.99279
     19       9.4132      0.00000
     20       9.9577      0.00000
     21      10.4503      0.00000
     22      11.3590      0.00000
     23      12.1991      0.00000
     24      12.7023      0.00000
     25      13.4562      0.00000
     26      14.9190      0.00000
     27      15.3265      0.00000
     28      15.6591      0.00000
     29      16.4288      0.00000
     30      17.6058      0.00000
     31      18.1138      0.00000
     32      18.9346      0.00000
     33      20.1848      0.00000
     34      20.4902      0.00000
     35      21.2088      0.00000
     36      21.9076      0.00000
     37      22.3303      0.00000
     38      24.2553      0.00000
     39      24.9861      0.00000
     40      26.7696      0.00000

 k-point  19 :       0.1400    0.0000    0.0000
  band No.  band energies     occupation 
      1     -10.4344      2.00000
      2      -9.3743      2.00000
      3      -6.8893      2.00000
      4      -6.4581      2.00000
      5      -1.9396      2.00000
      6      -0.6353      2.00000
      7       1.9526      2.00000
      8       2.7153      2.00000
      9       3.2000      2.00000
     10       3.7045      2.00000
     11       4.5193      2.00000
     12       5.0238      2.00000
     13       5.7407      2.00000
     14       6.0807      2.00000
     15       6.7115      2.00000
     16       7.3410      2.00000
     17       8.0668      2.00000
     18       8.7968      1.77189
     19       9.6579      0.00000
     20      10.7511      0.00000
     21      10.8759      0.00000
     22      12.1538      0.00000
     23      12.6205      0.00000
     24      13.4271      0.00000
     25      14.0925      0.00000
     26      14.8629      0.00000
     27      15.3511      0.00000
     28      15.6804      0.00000
     29      17.1202      0.00000
     30      17.7538      0.00000
     31      18.2333      0.00000
     32      19.4174      0.00000
     33      19.6575      0.00000
     34      20.6582      0.00000
     35      21.7205      0.00000
     36      22.6752      0.00000
     37      23.2934      0.00000
     38      25.0182      0.00000
     39      26.8026      0.00000
     40      27.6230      0.00000

 k-point  20 :       0.1200    0.0000    0.0000
  band No.  band energies     occupation 
      1     -10.2644      2.00000
      2      -9.3375      2.00000
      3      -6.8892      2.00000
      4      -6.1124      2.00000
      5      -1.6560      2.00000
      6      -0.6839      2.00000
      7       2.4439      2.00000
      8       2.6510      2.00000
      9       3.0912      2.00000
     10       4.1869      2.00000
     11       4.6157      2.00000
     12       5.2366      2.00000
     13       6.1690      2.00000
     14       6.5930      2.00000
     15       7.1281      2.00000
     16       7.3953      2.00000
     17       8.0391      2.00000
     18       8.7165      1.99949
     19      10.0625      0.00000
     20      10.4097      0.00000
     21      11.3357      0.00000
     22      11.7051      0.00000
     23      12.1600      0.00000
     24      13.1756      0.00000
     25      14.2826      0.00000
     26      14.8494      0.00000
     27      15.5446      0.00000
     28      16.5171      0.00000
     29      17.1893      0.00000
     30      18.2162      0.00000
     31      19.5575      0.00000
     32      19.8347      0.00000
     33      20.9149      0.00000
     34      22.1375      0.00000
     35      22.4597      0.00000
     36      23.0968      0.00000
     37      23.8562      0.00000
     38      25.2134      0.00000
     39      26.5351      0.00000
     40      27.1572      0.00000

 k-point  21 :       0.1000    0.0000    0.0000
  band No.  band energies     occupation 
      1     -10.7305      2.00000
      2      -9.6947      2.00000
      3      -7.4089      2.00000
      4      -6.3877      2.00000
      5      -1.5839      2.00000
      6       0.2565      2.00000
      7       2.1697      2.00000
      8       3.0121      2.00000
      9       3.3466      2.00000
     10       3.9543      2.00000
     11       4.7032      2.00000
     12       5.5030      2.00000
     13       5.9256      2.00000
     14       6.6227      2.00000
     15       6.8221      2.00000
     16       7.6553      2.00000
     17       8.0240      2.00000
     18       8.9581      0.00079
     19       9.3067      0.00000
     20      10.1262      0.00000
     21      10.7213      0.00000
     22      11.4184      0.00000
     23      11.7237      0.00000
     24      13.0207      0.00000
     25      13.5295      0.00000
     26      13.9945      0.00000
     27      14.3925      0.00000
     28      16.2536      0.00000
     29      17.1182      0.00000
     30      18.0738      0.00000
     31      18.4872      0.00000
     32      19.7762      0.00000
     33      20.7493      0.00000
     34      21.3615      0.00000
     35      22.0934      0.00000
     36      23.2877      0.00000
     37      23.8995      0.00000
     38      24.7983      0.00000
     39      25.4851      0.00000
     40      26.7360      0.00000

 k-point  22 :       0.0800    0.0000    0.0000
  band No.  band energies     occupation 
      1     -10.8163      2.00000
      2     -10.0520      2.00000
      3      -6.6789      2.00000
      4      -6.3714      2.00000
      5      -1.9397      2.00000
      6      -0.3786      2.00000
      7       2.5599      2.00000
      8       2.9586      2.00000
      9       3.5145      2.00000
     10       4.1592      2.00000
     11       4.6988      2.00000
     12       5.2714      2.00000
     13       5.7254      2.00000
     14       6.2179      2.00000
     15       6.9899      2.00000
     16       7.6821      2.00000
     17       7.9386      2.00000
     18       9.0267      0.00000
     19       9.7443      0.00000
     20      10.4060      0.00000
     21      11.3503      0.00000
     22      11.7941      0.00000
     23      12.3330      0.00000
     24      12.8778      0.00000
     25      13.4416      0.00000
     26      14.6906      0.00000
     27      14.8312      0.00000
     28      16.1511      0.00000
     29      16.8681      0.00000
     30      17.6504      0.00000
     31      18.1436      0.00000
     32      19.2533      0.00000
     33      20.4091      0.00000
     34      21.1879      0.00000
     35      22.0009      0.00000
     36      22.8180      0.00000
     37      23.7891      0.00000
     38      24.5535      0.00000
     39      25.2273      0.00000
     40      27.3991      0.00000

 k-point  23 :       0.0600    0.0000    0.0000
  band No.  band energies     occupation 
      1     -10.8632      2.00000
      2      -9.9356      2.00000
      3      -7.3289      2.00000
      4      -5.7637      2.00000
      5      -1.6329      2.00000
      6      -0.1124      2.00000
      7       2.8157      2.00000
      8       3.5137      2.00000
      9       3.7396      2.00000
     10       4.4143      2.00000
     11       4.9672      2.00000
     12       5.6515      2.00000
     13       6.1343      2.00000
     14       6.7712      2.00000
     15       7.3022      2.00000
     16       7.7664      2.00000
     17       8.2574      2.00000
     18       8.6226      2.00000
     19       9.4779      0.00000
     20      10.4838      0.00000
     21      11.4572      0.00000
     22      12.4625      0.00000
     23      12.7563      0.00000
     24      14.0891      0.00000
     25      14.5650      0.00000
     26      14.8551      0.00000
     27      15.8986      0.00000
     28      16.5334      0.00000
     29      17.2079      0.00000
     30      18.0100      0.00000
     31      18.4423      0.00000
     32      19.8978      0.00000
     33      20.9993      0.00000
     34      21.2274      0.00000
     35      22.3768      0.00000
     36      22.9529      0.00000
     37      23.6154      0.00000
     38      25.0802      0.00000
     39      26.2119      0.00000
     40      27.8618      0.00000

 k-point  24 :       0.0400    0.0000    0.0000
  band No.  band energies     occupation 
      1     -10.4574      2.00000
      2      -9.6199      2.00000
      3      -7.6966      2.00000
      4      -6.2288      2.00000
      5      -0.9328      2.00000
      6      -0.1439      2.00000
      7       2.4588      2.00000
      8       3.3964      2.00000
      9       3.8539      2.00000
     10       4.3817      2.00000
     11       4.7701      2.00000
     12       5.2001      2.00000
     13       6.1150      2.00000
     14       6.5179      2.00000
     15       7.1608      2.00000
     16       7.5747      2.00000
     17       8.1152      2.00000
     18       9.5252      0.00000
     19       9.7925      0.00000
     20      10.6907      0.00000
     21      11.3609      0.00000
     22      12.4258      0.00000
     23      13.1686      0.00000
     24      13.7937      0.00000
     25      14.1798      0.00000
     26      14.5078      0.00000
     27      15.4718      0.00000
     28      15.9930      0.00000
     29      16.7414      0.00000
     30      17.1329      0.00000
     31      18.2014      0.00000
     32      19.0151      0.00000
     33      20.1666      0.00000
     34      21.0568      0.00000
     35      21.6238      0.00000
     36      22.9459      0.00000
     37      23.4775      0.00000
     38      24.9950      0.00000
     39      25.8664      0.00000
     40      27.7776      0.00000

 k-point  25 :       0.0200    0.0000    0.0000
  band No.  band energies     occupation 
      1     -11.2748      2.00000
      2     -10.0885      2.00000
      3      -7.6774      2.00000
      4      -6.0726      2.00000
      5      -2.2042      2.00000
      6      -0.6547      2.00000
      7       2.5130      2.00000
      8       3.1661      2.00000
      9       3.4233      2.00000
     10       4.3702      2.00000
     11       4.6961      2.00000
     12       5.3523      2.00000
     13       6.2448      2.00000
     14       7.0037      2.00000
     15       7.3378      2.00000
     16       7.8862      2.00000
     17       8.3791      2.00000
     18       8.8816      0.23301
     19       9.6915      0.00000
     20      10.5676      0.00000
     21      11.3441      0.00000
     22      12.1681      0.00000
     23      12.8063      0.00000
     24      13.6131      0.00000
     25      14.1924      0.00000
     26      14.9500      0.00000
     27      15.8521      0.00000
     28      16.4979      0.00000
     29      17.3671      0.00000
     30      17.6619      0.00000
     31      19.0920      0.00000
     32      19.6884      0.00000
     33      20.7325      0.00000
     34      21.7243      0.00000
     35      22.5239      0.00000
     36      23.4234      0.00000
     37      23.9365      0.00000
     38      25.5399      0.00000
     39      26.4692      0.00000
     40      27.0655      0.00000

 k-point  26 :       0.0000    0.0000    0.0000
  band No.  band energies     occupation 
      1     -11.1020      2.00000
      2     -10.1045      2.00000
      3      -7.1248      2.00000
      4      -6.3746      2.00000
      5      -1.9426      2.00000
      6      -0.6802      2.00000
      7       2.6733      2.00000
      8       3.2324      2.00000
      9       3.7534      2.00000
     10       4.1719      2.00000
     11       4.8859      2.00000
     12       5.8409      2.00000
     13       6.4196      2.00000
     14       6.9257      2.00000
     15       7.4210      2.00000
     16       7.9682      2.00000
     17       8.8100      1.59592
     18       9.2702      0.00000
     19      10.4197      0.00000
     20      10.7243      0.00000
     21      11.2510      0.00000
     22      11.7869      0.00000
     23      12.7104      0.00000
     24      14.0637      0.00000
     25      15.2646      0.00000
     26      16.3058      0.00000
     27      16.8814      0.00000
     28      17.2929      0.00000
     29      17.7839      0.00000
     30      19.0679      0.00000
     31      19.6958      0.00000
     32      20.7071      0.00000
     33      21.1518      0.00000
     34      22.6534      0.00000
     35      23.0026      0.00000
     36      23.4431      0.00000
     37      24.5104      0.00000
     38      25.2853      0.00000
     39      25.9654      0.00000
     40      27.9167      0.00000

 k-point  27 :       0.0000    0.0000    0.0000
  band No.  band energies     occupation 
      1     -11.0122      2.00000
      2      -9.8878      2.00000
      3      -6.9235      2.00000
      4      -5.7468      2.00000
      5      -1.8209      2.00000
      6      -0.2701      2.00000
      7       2.7743      2.00000
      8       2.8366      2.00000
      9       3.8918      2.00000
     10       4.3605      2.00000
     11       4.9377      2.00000
     12       5.8223      2.00000
     13       6.2480      2.00000
     14       6.8406      2.00000
     15       7.6242      2.00000
     16       8.0557      2.00000
     17       8.3417      2.00000
     18       9.0531      0.00000
     19       9.4711      0.00000
     20      10.5916      0.00000
     21      11.5982      0.00000
     22      11.6702      0.00000
     23      12.6736      0.00000
     24      13.1827      0.00000
     25      14.5310      0.00000
     26      14.7640      0.00000
     27      15.5333      0.00000
     28      16.7298      0.00000
     29      17.0748      0.00000
     30      18.0180      0.00000
     31      18.3599      0.00000
     32      19.8880      0.00000
     33      20.8781      0.00000
     34      21.6523      0.00000
     35      22.3194      0.00000
     36      22.9009      0.00000
     37      23.4053      0.00000
     38      25.3565      0.00000
     39      26.0250      0.00000
     40      27.5220      0.00000

 k-point  28 :       0.0133    0.0133    0.0000
  band No.  band energies     occupation 
      1     -11.6547      2.00000
      2     -10.7780      2.00000
      3      -8.6499      2.00000
      4      -7.1764      2.00000
      5      -2.2409      2.00000
      6      -0.4354      2.00000
      7       1.6280      2.00000
      8       1.9267      2.00000
      9       2.9854      2.00000
     10       3.7143      2.00000
     11       4.2422      2.00000
     12       4.9844      2.00000
     13       5.7115      2.00000
     14       6.2967      2.00000
     15       6.7945      2.00000
     16       7.3132      2.00000
     17       8.0300      2.00000
     18       8.8646      0.47689
     19       9.8681      0.00000
     20      10.2343      0.00000
     21      10.6645      0.00000
     22      11.4393      0.00000
     23      12.6782      0.00000
     24      13.2753      0.00000
     25      13.9138      0.00000
     26      15.2786      0.00000
     27      15.8966      0.00000
     28      17.3560      0.00000
     29      17.9023      0.00000
     30      18.3634      0.00000
     31      19.0671      0.00000
     32      19.6890      0.00000
     33      20.5348      0.00000
     34      21.9415      0.00000
     35      22.5807      0.00000
     36      23.3030      0.00000
     37      24.0079      0.00000
     38      24.6826      0.00000
     39      25.9026      0.00000
     40      27.5305      0.00000

 k-point  29 :       0.0267    0.0267    0.0000
  band No.  band energies     occupation 
      1     -11.1799      2.00000
      2      -9.9943      2.00000
      3      -7.5846      2.00000
      4      -6.1601      2.00000
      5      -1.6714      2.00000
      6      -0.6740      2.00000
[...]
     19       3.1185      0.00000
     20       3.6700      0.00000
     21       3.8265      0.00000
     22       4.4110      0.00000
     23       4.7714      0.00000
     24       4.9721      0.00000
     25       5.4472      0.00000
     26       5.5722      0.00000
     27       6.5088      0.00000
     28       7.3116      0.00000
     29       9.2132      0.00000
     30       9.3737      0.00000
     31       9.6175      0.00000
     32       9.8865      0.00000
     33      10.1994      0.00000
     34      10.5734      0.00000
     35      10.7055      0.00000
     36      11.2099      0.00000
     37      11.2265      0.00000
     38      11.7279      0.00000
     39      12.0827      0.00000
     40      12.3001      0.00000

 k-point  72 :       0.4600    0.0800    0.0000
  band No.  band energies     occupation 
      1     -11.5582      2.00000
      2     -11.3356      2.00000
      3     -11.2462      2.00000
      4     -11.0860      2.00000
      5      -5.2896      2.00000
      6      -4.7397      2.00000
      7      -4.1404      2.00000
      8      -3.9609      2.00000
      9      -3.3802      2.00000
     10      -3.0307      2.00000
     11      -2.3434      2.00000
     12      -2.2506      2.00000
     13      -1.0703      2.00000
     14      -0.8777      2.00000
     15      -0.7432      2.00000
     16      -0.5133      2.00000
     17       0.3816      2.00000
     18       0.4836      2.00000
     19       3.1210      0.00000
     20       3.6509      0.00000
     21       3.8481      0.00000
     22       4.3962      0.00000
     23       4.8212      0.00000
     24       4.9581      0.00000
     25       5.4752      0.00000
     26       5.5651      0.00000
     27       6.4430      0.00000
     28       7.2683      0.00000
     29       9.0561      0.00000
     30       9.2695      0.00000
     31       9.5401      0.00000
     32       9.8167      0.00000
     33      10.1699      0.00000
     34      10.5444      0.00000
     35      10.7127      0.00000
     36      11.1893      0.00000
     37      11.2597      0.00000
     38      11.8798      0.00000
     39      12.0469      0.00000
     40      12.2537      0.00000

 k-point  73 :       0.4667    0.0667    0.0000
  band No.  band energies     occupation 
      1     -11.5687      2.00000
      2     -11.3442      2.00000
      3     -11.2523      2.00000
      4     -11.0919      2.00000
      5      -5.3189      2.00000
      6      -4.7674      2.00000
      7      -4.1251      2.00000
      8      -3.9393      2.00000
      9      -3.3854      2.00000
     10      -3.0351      2.00000
     11      -2.3358      2.00000
     12      -2.2525      2.00000
     13      -1.0669      2.00000
     14      -0.8832      2.00000
     15      -0.6158      2.00000
     16      -0.3969      2.00000
     17       0.3441      2.00000
     18       0.4477      2.00000
     19       3.1195      0.00000
     20       3.6371      0.00000
     21       3.8642      0.00000
     22       4.3845      0.00000
     23       4.8254      0.00000
     24       4.9896      0.00000
     25       5.4384      0.00000
     26       5.6263      0.00000
     27       6.3843      0.00000
     28       7.2298      0.00000
     29       8.9150      0.00000
     30       9.1705      0.00000
     31       9.4633      0.00000
     32       9.7632      0.00000
     33      10.1399      0.00000
     34      10.5196      0.00000
     35      10.7059      0.00000
     36      11.1599      0.00000
     37      11.3380      0.00000
     38      12.0104      0.00000
     39      12.0247      0.00000
     40      12.2173      0.00000

 k-point  74 :       0.4733    0.0533    0.0000
  band No.  band energies     occupation 
      1     -11.5774      2.00000
      2     -11.3514      2.00000
      3     -11.2575      2.00000
      4     -11.0969      2.00000
      5      -5.3431      2.00000
      6      -4.7902      2.00000
      7      -4.1131      2.00000
      8      -3.9212      2.00000
      9      -3.3895      2.00000
     10      -3.0386      2.00000
     11      -2.3304      2.00000
     12      -2.2512      2.00000
     13      -1.0651      2.00000
     14      -0.8902      2.00000
     15      -0.4960      2.00000
     16      -0.2899      2.00000
     17       0.3024      2.00000
     18       0.4096      2.00000
     19       3.1154      0.00000
     20       3.6277      0.00000
     21       3.8754      0.00000
     22       4.3757      0.00000
     23       4.8054      0.00000
     24       5.0431      0.00000
     25       5.3981      0.00000
     26       5.6924      0.00000
     27       6.3339      0.00000
     28       7.1965      0.00000
     29       8.7930      0.00000
     30       9.0828      0.00000
     31       9.3927      0.00000
     32       9.7220      0.00000
     33      10.1136      0.00000
     34      10.4992      0.00000
     35      10.6917      0.00000
     36      11.1355      0.00000
     37      11.4338      0.00000
     38      11.9846      0.00000
     39      12.0985      0.00000
     40      12.2388      0.00000

 k-point  75 :       0.4800    0.0400    0.0000
  band No.  band energies     occupation 
      1     -11.5843      2.00000
      2     -11.3571      2.00000
      3     -11.2615      2.00000
      4     -11.1007      2.00000
      5      -5.3620      2.00000
      6      -4.8080      2.00000
      7      -4.1041      2.00000
      8      -3.9067      2.00000
      9      -3.3926      2.00000
     10      -3.0413      2.00000
     11      -2.3274      2.00000
     12      -2.2477      2.00000
     13      -1.0641      2.00000
     14      -0.8969      2.00000
     15      -0.3879      2.00000
     16      -0.1947      2.00000
     17       0.2572      2.00000
     18       0.3700      2.00000
     19       3.1104      0.00000
     20       3.6217      0.00000
     21       3.8828      0.00000
     22       4.3696      0.00000
     23       4.7835      0.00000
     24       5.0946      0.00000
     25       5.3646      0.00000
     26       5.7502      0.00000
     27       6.2932      0.00000
     28       7.1695      0.00000
     29       8.6932      0.00000
     30       9.0108      0.00000
     31       9.3335      0.00000
     32       9.6908      0.00000
     33      10.0927      0.00000
     34      10.4833      0.00000
     35      10.6767      0.00000
     36      11.1165      0.00000
     37      11.5347      0.00000
     38      11.9548      0.00000
     39      12.0807      0.00000
     40      12.3379      0.00000

 k-point  76 :       0.4867    0.0267    0.0000
  band No.  band energies     occupation 
      1     -11.5893      2.00000
      2     -11.3612      2.00000
      3     -11.2644      2.00000
      4     -11.1035      2.00000
      5      -5.3755      2.00000
      6      -4.8208      2.00000
      7      -4.0979      2.00000
      8      -3.8962      2.00000
      9      -3.3947      2.00000
     10      -3.0432      2.00000
     11      -2.3259      2.00000
     12      -2.2435      2.00000
     13      -1.0637      2.00000
     14      -0.9023      2.00000
     15      -0.2963      2.00000
     16      -0.1153      2.00000
     17       0.2118      2.00000
     18       0.3315      2.00000
     19       3.1056      0.00000
     20       3.6183      0.00000
     21       3.8873      0.00000
     22       4.3656      0.00000
     23       4.7661      0.00000
     24       5.1352      0.00000
     25       5.3399      0.00000
     26       5.7950      0.00000
     27       6.2632      0.00000
     28       7.1493      0.00000
     29       8.6190      0.00000
     30       8.9573      0.00000
     31       9.2890      0.00000
     32       9.6686      0.00000
     33      10.0779      0.00000
     34      10.4719      0.00000
     35      10.6644      0.00000
     36      11.1030      0.00000
     37      11.6328      0.00000
     38      11.9188      0.00000
     39      12.0492      0.00000
     40      12.4435      0.00000

 k-point  77 :       0.4933    0.0133    0.0000
  band No.  band energies     occupation 
      1     -11.5923      2.00000
      2     -11.3636      2.00000
      3     -11.2662      2.00000
      4     -11.1053      2.00000
      5      -5.3837      2.00000
      6      -4.8285      2.00000
      7      -4.0943      2.00000
      8      -3.8899      2.00000
      9      -3.3959      2.00000
     10      -3.0444      2.00000
     11      -2.3254      2.00000
     12      -2.2403      2.00000
     13      -1.0636      2.00000
     14      -0.9058      2.00000
     15      -0.2302      2.00000
     16      -0.0589      2.00000
     17       0.1739      2.00000
     18       0.3001      2.00000
     19       3.1023      0.00000
     20       3.6165      0.00000
     21       3.8896      0.00000
     22       4.3633      0.00000
     23       4.7551      0.00000
     24       5.1611      0.00000
     25       5.3246      0.00000
     26       5.8234      0.00000
     27       6.2447      0.00000
     28       7.1368      0.00000
     29       8.5730      0.00000
     30       8.9242      0.00000
     31       9.2615      0.00000
     32       9.6551      0.00000
     33      10.0689      0.00000
     34      10.4650      0.00000
     35      10.6565      0.00000
     36      11.0949      0.00000
     37      11.7228      0.00000
     38      11.8698      0.00000
     39      12.0271      0.00000
     40      12.5134      0.00000

 k-point  78 :       0.5000    0.0000    0.0000
  band No.  band energies     occupation 
      1     -11.5933      2.00000
      2     -11.3645      2.00000
      3     -11.2667      2.00000
      4     -11.1058      2.00000
      5      -5.3864      2.00000
      6      -4.8311      2.00000
      7      -4.0931      2.00000
      8      -3.8878      2.00000
      9      -3.3963      2.00000
     10      -3.0447      2.00000
     11      -2.3253      2.00000
     12      -2.2391      2.00000
     13      -1.0636      2.00000
     14      -0.9070      2.00000
     15      -0.2048      2.00000
     16      -0.0375      2.00000
     17       0.1580      2.00000
     18       0.2872      2.00000
     19       3.1011      0.00000
     20       3.6159      0.00000
     21       3.8903      0.00000
     22       4.3625      0.00000
     23       4.7514      0.00000
     24       5.1701      0.00000
     25       5.3194      0.00000
     26       5.8331      0.00000
     27       6.2385      0.00000
     28       7.1325      0.00000
     29       8.5576      0.00000
     30       8.9131      0.00000
     31       9.2522      0.00000
     32       9.6507      0.00000
     33      10.0660      0.00000
     34      10.4627      0.00000
     35      10.6538      0.00000
     36      11.0922      0.00000
     37      11.7911      0.00000
     38      11.8157      0.00000
     39      12.0196      0.00000
     40      12.5360      0.00000


--------------------------------------------------------------------------------------------------------


 soft charge-density along one line, spin component           1
         0         1         2         3         4         5         6         7         8         9
 total charge-density along one line
 
 pseudopotential strength for first ion, spin component:           1
 40.747   0.009   0.000  -0.045   0.000   0.000   0.000   0.000
  0.009   0.009   0.000   0.000   0.000   0.000   0.000   0.000
  0.000   0.000   8.455   0.000   0.000   0.000   0.000   0.000
 -0.045   0.000   0.000   8.453   0.000   0.000   0.000   0.000
  0.000   0.000   0.000   0.000   8.455   0.000   0.000   0.000
  0.000   0.000   0.000   0.000   0.000   0.027   0.000   0.000
  0.000   0.000   0.000   0.000   0.000   0.000   0.027   0.000
  0.000   0.000   0.000   0.000   0.000   0.000   0.000   0.027
 total augmentation occupancy for first ion, spin component:           1
  2.000   0.000   0.000   0.000   0.000   0.000   0.000   0.000
  0.000   0.000   0.000   0.000   0.000   0.000   0.000   0.000
  0.000   0.000   1.333   0.000   0.000   0.000   0.000   0.000
  0.000   0.000   0.000   1.333   0.000   0.000   0.000   0.000
  0.000   0.000   0.000   0.000   1.333   0.000   0.000   0.000
  0.000   0.000   0.000   0.000   0.000   0.000   0.000   0.000
  0.000   0.000   0.000   0.000   0.000   0.000   0.000   0.000
  0.000   0.000   0.000   0.000   0.000   0.000   0.000   0.000


------------------------ aborting loop because EDIFF is reached ----------------------------------------


 


 total charge     
 
# of ion     s       p       d       tot
----------------------------------------
  1        1.350   2.335   0.000   3.685
  2        1.353   2.340   0.000   3.693
  3        1.358   2.306   0.000   3.664
  4        1.356   2.300   0.000   3.657
  5        0.411   0.583   4.532   5.526
  6        0.555   0.686   4.367   5.607
------------------------------------------------
tot        6.383  10.550   8.899  25.832
 
    CHARGE:  cpu time    0.08: real time    0.08
    FORLOC:  cpu time    0.00: real time    0.00
    FORNL :  cpu time    0.67: real time    0.67
    STRESS:  cpu time    2.01: real time    2.01
    FORCOR:  cpu time    0.01: real time    0.01
    FORHAR:  cpu time    0.00: real time    0.00

  Grimme's potential added to compensate for missing vdW interactions
  -------------------------------------------------------------------

  Parameters for Grimme's potential:
         C6(Jnm^6/mol)     R0(A)
   -----------------------------
   S        5.570          1.683
   Mo      24.670          1.639
   W       81.240          1.772

  Cutoff radius:   30.000 A

  Global scaling factor:    0.750 A

  Parameter d:   20.000 A

  Number of pair interactions contributing to Grimme's potential:   13829
  Estimated vdW energy (eV):  -1.69447

  FORCE on cell =-STRESS in cart. coord.  units (eV):
  Direction    XX          YY          ZZ          XY          YZ          ZX
  --------------------------------------------------------------------------------------
  Alpha Z    68.88242    68.88242    68.88242
  Ewald    3528.29575  3528.59179 -4665.51479     0.20408    -0.15710     0.16562
  Hartree  3896.22100  3896.95486 -3822.11855    -0.32867    -0.02331     0.13315
  E(xc)    -138.99029  -140.17071  -140.75675     2.07532     0.00217     0.01857
  Local   -8025.78615 -8035.29009  7867.52617    13.28274     0.16100    -0.28189
  n-local   252.47127   251.87924   264.83774    -0.66637    -0.01816     0.05046
  augment   -53.76970   -53.33394   -56.31679    -0.57273     0.00246    -0.00702
  Kinetic   472.68956   482.46431   487.15171   -13.57970    -0.04357    -0.26379
  Fock        0.00000     0.00000     0.00000     0.00000     0.00000     0.00000
  -------------------------------------------------------------------------------------
  Total      -0.09745    -0.12962     2.53306     0.41692    -0.08095    -0.18021
  in kB      -0.88776    -1.18082    23.07634     3.79814    -0.73743    -1.64172
  external pressure =        7.00 kB  Pullay stress =        0.00 kB


 VOLUME and BASIS-vectors are now :
 -----------------------------------------------------------------------------
  energy-cutoff  :      350.00
  volume of cell :      175.87
      direct lattice vectors                 reciprocal lattice vectors
     3.186500000  0.000000000  0.000000000     0.313823945  0.181186339  0.000000000
    -1.593250000  2.759589949  0.000000000     0.000000000  0.362372678  0.000000000
     0.000000000  0.000000000 20.000000000     0.000000000  0.000000000  0.050000000

  length of vectors
     3.186500000  3.186500000 20.000000000     0.362372678  0.362372678  0.050000000


 FORCES acting on ions
    electron-ion (+dipol)            ewald-force                    non-local-force                 convergence-correction
 -----------------------------------------------------------------------------------------------
   0.104E+01 0.445E+00 -.794E+03   0.325E-02 -.644E-02 0.796E+03   0.277E-01 -.113E+00 -.390E+01   -.960E+00 -.288E+00 0.161E+01
   0.100E+01 0.508E+00 -.630E+02   0.469E-01 -.446E-01 0.606E+02   -.254E-01 -.143E+00 0.435E+01   -.923E+00 -.282E+00 -.194E+01
   -.162E+01 -.725E+00 0.619E+02   -.467E-01 0.396E-01 -.600E+02   0.501E+00 0.332E+00 -.419E+01   0.956E+00 0.300E+00 0.228E+01
   -.164E+01 -.656E+00 0.795E+03   -.143E-01 0.705E-03 -.797E+03   0.411E+00 0.296E+00 0.376E+01   0.993E+00 0.305E+00 -.199E+01
   0.326E+00 0.158E+00 0.429E+03   0.148E-01 0.489E-02 -.429E+03   0.929E-01 -.347E-01 -.429E-01   -.862E-01 -.489E-01 0.674E-02
   -.429E+00 -.227E+00 -.429E+03   -.383E-02 0.588E-02 0.429E+03   0.248E+00 0.128E+00 0.820E-01   0.121E+00 0.657E-01 -.490E-01
 -----------------------------------------------------------------------------------------------
   -.132E+01 -.496E+00 0.200E-01   0.570E-14 -.141E-13 0.227E-12   0.125E+01 0.464E+00 0.562E-01   0.101E+00 0.516E-01 -.771E-01
 
 
 POSITION                                       TOTAL-FORCE (eV/Angst)
 -----------------------------------------------------------------------------------
      1.54407      0.95911     13.84329         0.109198      0.033864      0.077465
      1.54430      0.95871     10.71821         0.097447      0.033985      0.023817
      1.58923      2.75814      7.70018        -0.220035     -0.055753     -0.022797
      1.58992      2.75778      4.58188        -0.258199     -0.057387     -0.097659
      1.58938      0.91810      6.14156         0.341561      0.075802     -0.007727
      3.13745      0.03900     12.27926        -0.069972     -0.030512      0.026901
 -----------------------------------------------------------------------------------
    total drift:                                0.033326      0.019913     -0.000782


--------------------------------------------------------------------------------------------------------



  FREE ENERGIE OF THE ION-ELECTRON SYSTEM (eV)
  ---------------------------------------------------
  free  energy   TOTEN  =       -46.347148 eV

  energy  without entropy=      -46.347148  energy(sigma->0) =      -46.347148
 


--------------------------------------------------------------------------------------------------------


    POTLOK:  cpu time    0.02: real time    0.03


--------------------------------------------------------------------------------------------------------


 writing wavefunctions
     LOOP+:  cpu time   38.83: real time   43.19
 vacuum level on the upper side and lower side of the slab         5.991         6.010
    4ORBIT:  cpu time    0.00: real time    0.00
 


 total charge     
 
# of ion     s       p       d       tot
----------------------------------------
  1        1.350   2.335   0.000   3.685
  2        1.353   2.340   0.000   3.693
  3        1.358   2.306   0.000   3.664
  4        1.356   2.300   0.000   3.657
  5        0.411   0.583   4.532   5.526
  6        0.555   0.686   4.367   5.607
------------------------------------------------
tot        6.383  10.550   8.899  25.832
 

 total amount of memory used by VASP on root node    34486. kBytes
========================================================================

   base      :      30000. kBytes
   nonlr-proj:        653. kBytes
   fftplans  :        318. kBytes
   grid      :        505. kBytes
   one-center:         15. kBytes
   wavefun   :       2995. kBytes
 
  
  
 General timing and accounting informations for this job:
 ========================================================
  
                  Total CPU time used (sec):       49.779
                            User time (sec):       30.152
                          System time (sec):       19.627
                         Elapsed time (sec):       73.185
  
                   Maximum memory used (kb):           0.
                   Average memory used (kb):           0.
  
                          Minor page faults:       585469
                          Major page faults:           18
                 Voluntary context switches:       329866
