PROCAR lm decomposed
# of k-points:   78         # of bands:  40         # of ions:   6

 k-point    1 :    0.50000000 0.00000000 0.00000000     weight = 0.01282051

band   1 # energy  -11.59331361 # occ.  2.00000000
 
ion      s     py     pz     px    dxy    dyz    dz2    dxz    dx2    tot
  1  0.265  0.000  0.006  0.000  0.000  0.000  0.000  0.000  0.000  0.272
  2  0.348  0.000  0.007  0.000  0.000  0.000  0.000  0.000  0.000  0.356
  3  0.010  0.000  0.000  0.000  0.000  0.000  0.000  0.000  0.000  0.010
  4  0.001  0.000  0.000  0.000  0.000  0.000  0.000  0.000  0.000  0.001
  5  0.000  0.000  0.000  0.000  0.000  0.000  0.000  0.000  0.000  0.002
  6  0.030  0.014  0.000  0.041  0.044  0.000  0.000  0.000  0.015  0.143
tot  0.654  0.014  0.014  0.042  0.044  0.000  0.000  0.001  0.015  0.784
 
band   2 # energy  -11.36446433 # occ.  2.00000000
 
ion      s     py     pz     px    dxy    dyz    dz2    dxz    dx2    tot
  1  0.047  0.000  0.001  0.000  0.000  0.000  0.000  0.000  0.000  0.048
  2  0.004  0.000  0.000  0.000  0.000  0.000  0.000  0.000  0.000  0.004
  3  0.338  0.000  0.006  0.000  0.000  0.000  0.000  0.000  0.000  0.344
  4  0.251  0.000  0.005  0.000  0.000  0.000  0.000  0.000  0.000  0.256
  5  0.018  0.011  0.000  0.034  0.034  0.000  0.000  0.000  0.011  0.110
  6  0.001  0.000  0.000  0.001  0.001  0.002  0.000  0.006  0.000  0.011
tot  0.659  0.012  0.012  0.035  0.035  0.002  0.000  0.006  0.012  0.773
 
band   3 # energy  -11.26674983 # occ.  2.00000000
 
ion      s     py     pz     px    dxy    dyz    dz2    dxz    dx2    tot
  1  0.324  0.000  0.003  0.000  0.000  0.000  0.000  0.000  0.000  0.328
  2  0.276  0.000  0.003  0.000  0.000  0.000  0.000  0.000  0.000  0.279
  3  0.007  0.000  0.000  0.000  0.000  0.000  0.000  0.000  0.000  0.007
  4  0.045  0.000  0.001  0.000  0.000  0.000  0.000  0.000  0.000  0.046
  5  0.001  0.001  0.000  0.003  0.003  0.000  0.000  0.001  0.001  0.010
  6  0.000  0.000  0.006  0.000  0.000  0.031  0.000  0.092  0.000  0.129
tot  0.653  0.001  0.013  0.003  0.003  0.031  0.000  0.093  0.001  0.798
 
band   4 # energy  -11.10581678 # occ.  2.00000000
 
ion      s     py     pz     px    dxy    dyz    dz2    dxz    dx2    tot
  1  0.002  0.000  0.000  0.000  0.000  0.000  0.000  0.000  0.000  0.002
  2  0.010  0.000  0.000  0.000  0.000  0.000  0.000  0.000  0.000  0.010
  3  0.294  0.000  0.002  0.000  0.000  0.000  0.000  0.000  0.000  0.297
  4  0.352  0.000  0.003  0.000  0.000  0.000  0.000  0.000  0.000  0.356
  5  0.000  0.000  0.006  0.000  0.000  0.028  0.000  0.085  0.000  0.120
  6  0.000  0.000  0.000  0.000  0.000  0.001  0.000  0.002  0.000  0.003
tot  0.659  0.000  0.011  0.001  0.000  0.029  0.000  0.087  0.000  0.788
 
band   5 # energy   -5.38639517 # occ.  2.00000000
 
ion      s     py     pz     px    dxy    dyz    dz2    dxz    dx2    tot
  1  0.009  0.034  0.006  0.101  0.000  0.000  0.000  0.000  0.000  0.150
  2  0.008  0.037  0.006  0.110  0.000  0.000  0.000  0.000  0.000  0.162
  3  0.000  0.001  0.001  0.003  0.000  0.000  0.000  0.000  0.000  0.005
  4  0.000  0.000  0.000  0.001  0.000  0.000  0.000  0.000  0.000  0.002
  5  0.002  0.000  0.000  0.000  0.002  0.000  0.000  0.000  0.001  0.005
  6  0.164  0.007  0.000  0.022  0.061  0.000  0.018  0.000  0.020  0.293
tot  0.185  0.079  0.013  0.237  0.063  0.000  0.019  0.000  0.021  0.617
 
band   6 # energy   -4.83108342 # occ.  2.00000000
 
ion      s     py     pz     px    dxy    dyz    dz2    dxz    dx2    tot
  1  0.000  0.002  0.000  0.005  0.000  0.000  0.000  0.000  0.000  0.006
  2  0.000  0.000  0.000  0.001  0.000  0.000  0.000  0.000  0.000  0.002
  3  0.005  0.039  0.006  0.117  0.000  0.000  0.000  0.000  0.000  0.167
  4  0.006  0.036  0.006  0.108  0.000  0.000  0.000  0.000  0.000  0.156
  5  0.119  0.006  0.000  0.018  0.064  0.000  0.022  0.000  0.021  0.250
  6  0.004  0.000  0.000  0.001  0.001  0.000  0.001  0.000  0.000  0.007
tot  0.134  0.083  0.012  0.250  0.065  0.000  0.023  0.000  0.022  0.588
 
band   7 # energy   -4.09305657 # occ.  2.00000000
 
ion      s     py     pz     px    dxy    dyz    dz2    dxz    dx2    tot
  1  0.006  0.033  0.003  0.097  0.000  0.000  0.000  0.000  0.000  0.139
  2  0.011  0.038  0.024  0.113  0.000  0.000  0.000  0.000  0.000  0.186
  3  0.002  0.007  0.017  0.021  0.000  0.000  0.000  0.000  0.000  0.047
  4  0.000  0.003  0.000  0.009  0.000  0.000  0.000  0.000  0.000  0.012
  5  0.000  0.000  0.006  0.001  0.003  0.006  0.002  0.017  0.001  0.037
  6  0.000  0.000  0.060  0.001  0.003  0.028  0.001  0.086  0.001  0.179
tot  0.019  0.081  0.110  0.242  0.006  0.034  0.004  0.103  0.002  0.600
 
band   8 # energy   -3.88779329 # occ.  2.00000000
 
ion      s     py     pz     px    dxy    dyz    dz2    dxz    dx2    tot
  1  0.004  0.011  0.010  0.033  0.000  0.000  0.000  0.000  0.000  0.058
  2  0.000  0.004  0.006  0.012  0.000  0.000  0.000  0.000  0.000  0.022
  3  0.009  0.032  0.008  0.095  0.000  0.000  0.000  0.000  0.000  0.143
  4  0.008  0.038  0.007  0.115  0.000  0.000  0.000  0.000  0.000  0.168
  5  0.000  0.000  0.052  0.000  0.000  0.026  0.000  0.077  0.000  0.155
  6  0.000  0.001  0.013  0.003  0.006  0.003  0.005  0.010  0.002  0.044
tot  0.022  0.086  0.095  0.257  0.006  0.029  0.005  0.087  0.002  0.590
 
band   9 # energy   -3.39634203 # occ.  2.00000000
 
ion      s     py     pz     px    dxy    dyz    dz2    dxz    dx2    tot
  1  0.017  0.006  0.086  0.019  0.000  0.000  0.000  0.000  0.000  0.128
  2  0.010  0.001  0.079  0.002  0.000  0.000  0.000  0.000  0.000  0.092
  3  0.001  0.001  0.030  0.003  0.000  0.000  0.000  0.000  0.000  0.035
  4  0.009  0.007  0.039  0.022  0.000  0.000  0.000  0.000  0.000  0.078
  5  0.000  0.002  0.006  0.006  0.047  0.002  0.025  0.006  0.016  0.109
  6  0.000  0.006  0.001  0.019  0.110  0.000  0.071  0.001  0.037  0.245
tot  0.038  0.023  0.242  0.071  0.156  0.003  0.095  0.007  0.052  0.687
 
band  10 # energy   -3.04472831 # occ.  2.00000000
 
ion      s     py     pz     px    dxy    dyz    dz2    dxz    dx2    tot
  1  0.004  0.000  0.037  0.000  0.000  0.000  0.000  0.000  0.000  0.041
  2  0.009  0.005  0.028  0.015  0.000  0.000  0.000  0.000  0.000  0.057
  3  0.016  0.006  0.081  0.019  0.000  0.000  0.000  0.000  0.000  0.123
  4  0.011  0.002  0.088  0.005  0.000  0.000  0.000  0.000  0.000  0.105
  5  0.000  0.006  0.001  0.018  0.121  0.000  0.086  0.000  0.040  0.273
  6  0.000  0.003  0.002  0.008  0.047  0.000  0.037  0.001  0.016  0.113
tot  0.040  0.021  0.237  0.065  0.168  0.000  0.123  0.001  0.056  0.712
 
band  11 # energy   -2.32526780 # occ.  2.00000000
 
ion      s     py     pz     px    dxy    dyz    dz2    dxz    dx2    tot
  1  0.000  0.118  0.000  0.039  0.000  0.000  0.000  0.000  0.000  0.157
  2  0.000  0.125  0.000  0.042  0.000  0.000  0.000  0.000  0.000  0.166
  3  0.000  0.010  0.000  0.003  0.000  0.000  0.000  0.000  0.000  0.013
  4  0.000  0.007  0.000  0.002  0.000  0.000  0.000  0.000  0.000  0.010
  5  0.000  0.000  0.000  0.000  0.000  0.023  0.000  0.008  0.000  0.031
  6  0.000  0.000  0.000  0.000  0.000  0.328  0.000  0.109  0.000  0.437
tot  0.000  0.259  0.000  0.087  0.000  0.351  0.000  0.117  0.000  0.814
 
band  12 # energy   -2.23914637 # occ.  2.00000000
 
ion      s     py     pz     px    dxy    dyz    dz2    dxz    dx2    tot
  1  0.000  0.010  0.000  0.003  0.000  0.000  0.000  0.000  0.000  0.013
  2  0.000  0.008  0.000  0.002  0.000  0.000  0.000  0.000  0.000  0.010
  3  0.000  0.115  0.000  0.038  0.000  0.000  0.000  0.000  0.000  0.153
  4  0.000  0.114  0.000  0.038  0.000  0.000  0.000  0.000  0.000  0.151
  5  0.000  0.000  0.000  0.000  0.000  0.338  0.000  0.112  0.000  0.450
  6  0.000  0.000  0.000  0.000  0.000  0.025  0.000  0.008  0.000  0.033
tot  0.000  0.246  0.000  0.082  0.000  0.363  0.000  0.120  0.000  0.811
 
band  13 # energy   -1.06355544 # occ.  2.00000000
 
ion      s     py     pz     px    dxy    dyz    dz2    dxz    dx2    tot
  1  0.008  0.004  0.128  0.012  0.000  0.000  0.000  0.000  0.000  0.152
  2  0.010  0.003  0.153  0.009  0.000  0.000  0.000  0.000  0.000  0.175
  3  0.006  0.001  0.072  0.002  0.000  0.000  0.000  0.000  0.000  0.079
  4  0.004  0.002  0.049  0.006  0.000  0.000  0.000  0.000  0.000  0.060
  5  0.000  0.000  0.004  0.001  0.000  0.017  0.000  0.054  0.000  0.077
  6  0.000  0.000  0.013  0.000  0.000  0.031  0.000  0.095  0.000  0.141
tot  0.028  0.009  0.418  0.029  0.000  0.049  0.000  0.150  0.000  0.684
 
band  14 # energy   -0.90696960 # occ.  2.00000000
 
ion      s     py     pz     px    dxy    dyz    dz2    dxz    dx2    tot
  1  0.003  0.003  0.075  0.008  0.000  0.000  0.000  0.000  0.000  0.089
  2  0.002  0.004  0.052  0.012  0.000  0.000  0.000  0.000  0.000  0.070
  3  0.005  0.007  0.125  0.022  0.000  0.000  0.000  0.000  0.000  0.160
  4  0.007  0.006  0.143  0.016  0.000  0.000  0.000  0.000  0.000  0.173
  5  0.000  0.000  0.020  0.000  0.000  0.028  0.000  0.081  0.000  0.129
  6  0.000  0.000  0.012  0.001  0.000  0.010  0.000  0.028  0.000  0.052
tot  0.017  0.020  0.428  0.060  0.000  0.037  0.000  0.109  0.000  0.672
 
band  15 # energy   -0.20482998 # occ.  2.00000000
 
ion      s     py     pz     px    dxy    dyz    dz2    dxz    dx2    tot
  1  0.000  0.188  0.000  0.063  0.000  0.000  0.000  0.000  0.000  0.251
  2  0.000  0.183  0.000  0.061  0.000  0.000  0.000  0.000  0.000  0.244
  3  0.000  0.020  0.000  0.006  0.000  0.000  0.000  0.000  0.000  0.026
  4  0.000  0.021  0.000  0.007  0.000  0.000  0.000  0.000  0.000  0.029
  5  0.000  0.005  0.000  0.002  0.002  0.000  0.000  0.000  0.006  0.015
  6  0.000  0.057  0.000  0.019  0.013  0.000  0.000  0.000  0.041  0.130
tot  0.000  0.473  0.000  0.159  0.015  0.000  0.000  0.000  0.047  0.694
 
band  16 # energy   -0.03752761 # occ.  2.00000000
 
ion      s     py     pz     px    dxy    dyz    dz2    dxz    dx2    tot
  1  0.000  0.021  0.000  0.006  0.000  0.000  0.000  0.000  0.000  0.027
  2  0.000  0.022  0.000  0.007  0.000  0.000  0.000  0.000  0.000  0.029
  3  0.000  0.182  0.000  0.061  0.000  0.000  0.000  0.000  0.000  0.244
  4  0.000  0.184  0.000  0.061  0.000  0.000  0.000  0.000  0.000  0.245
  5  0.000  0.048  0.000  0.015  0.020  0.000  0.000  0.000  0.056  0.140
  6  0.000  0.007  0.000  0.002  0.002  0.000  0.000  0.000  0.004  0.016
tot  0.000  0.465  0.000  0.153  0.022  0.000  0.000  0.000  0.061  0.701
 
band  17 # energy    0.15799109 # occ.  2.00000000
 
ion      s     py     pz     px    dxy    dyz    dz2    dxz    dx2    tot
  1  0.005  0.001  0.076  0.003  0.000  0.000  0.000  0.000  0.000  0.084
  2  0.004  0.000  0.063  0.001  0.000  0.000  0.000  0.000  0.000  0.069
  3  0.001  0.000  0.007  0.000  0.000  0.000  0.000  0.000  0.000  0.008
  4  0.001  0.000  0.020  0.001  0.000  0.000  0.000  0.000  0.000  0.021
  5  0.000  0.004  0.000  0.014  0.012  0.000  0.026  0.000  0.005  0.061
  6  0.003  0.028  0.000  0.087  0.093  0.000  0.191  0.000  0.032  0.435
tot  0.013  0.033  0.166  0.106  0.106  0.000  0.217  0.000  0.037  0.678
 
band  18 # energy    0.28719171 # occ.  2.00000000
 
ion      s     py     pz     px    dxy    dyz    dz2    dxz    dx2    tot
  1  0.001  0.000  0.007  0.000  0.000  0.000  0.000  0.000  0.000  0.008
  2  0.000  0.001  0.013  0.001  0.000  0.000  0.000  0.000  0.000  0.015
  3  0.003  0.001  0.075  0.002  0.000  0.000  0.000  0.000  0.000  0.080
  4  0.004  0.000  0.072  0.001  0.000  0.000  0.000  0.000  0.000  0.078
  5  0.003  0.023  0.000  0.068  0.086  0.000  0.234  0.000  0.028  0.444
  6  0.002  0.004  0.000  0.011  0.016  0.000  0.039  0.000  0.005  0.076
tot  0.013  0.029  0.167  0.083  0.102  0.000  0.273  0.000  0.033  0.700
 
band  19 # energy    3.10110967 # occ.  0.00000000
 
ion      s     py     pz     px    dxy    dyz    dz2    dxz    dx2    tot
  1  0.000  0.000  0.000  0.000  0.000  0.000  0.000  0.000  0.000  0.000
  2  0.000  0.000  0.000  0.000  0.000  0.000  0.000  0.000  0.000  0.000
  3  0.000  0.015  0.000  0.005  0.000  0.000  0.000  0.000  0.000  0.020
  4  0.000  0.014  0.000  0.005  0.000  0.000  0.000  0.000  0.000  0.019
  5  0.000  0.003  0.000  0.001  0.222  0.000  0.000  0.000  0.665  0.892
  6  0.000  0.000  0.000  0.000  0.000  0.000  0.000  0.000  0.000  0.000
tot  0.000  0.032  0.000  0.011  0.222  0.000  0.000  0.000  0.666  0.931
 
band  20 # energy    3.61592137 # occ.  0.00000000
 
ion      s     py     pz     px    dxy    dyz    dz2    dxz    dx2    tot
  1  0.000  0.000  0.000  0.000  0.000  0.000  0.000  0.000  0.000  0.001
  2  0.000  0.000  0.001  0.000  0.000  0.000  0.000  0.000  0.000  0.001
  3  0.002  0.008  0.004  0.023  0.000  0.000  0.000  0.000  0.000  0.037
  4  0.002  0.008  0.004  0.025  0.000  0.000  0.000  0.000  0.000  0.038
  5  0.009  0.003  0.000  0.009  0.217  0.000  0.504  0.000  0.073  0.814
  6  0.000  0.000  0.000  0.000  0.001  0.000  0.004  0.000  0.000  0.006
tot  0.014  0.019  0.009  0.057  0.217  0.000  0.508  0.000  0.073  0.897
 
band  21 # energy    3.89032153 # occ.  0.00000000
 
ion      s     py     pz     px    dxy    dyz    dz2    dxz    dx2    tot
  1  0.000  0.009  0.000  0.003  0.000  0.000  0.000  0.000  0.000  0.012
  2  0.000  0.009  0.000  0.003  0.000  0.000  0.000  0.000  0.000  0.012
  3  0.000  0.000  0.000  0.000  0.000  0.000  0.000  0.000  0.000  0.000
  4  0.000  0.000  0.000  0.000  0.000  0.000  0.000  0.000  0.000  0.000
  5  0.000  0.000  0.000  0.000  0.000  0.000  0.000  0.000  0.000  0.001
  6  0.000  0.002  0.000  0.001  0.228  0.000  0.000  0.000  0.683  0.914
tot  0.000  0.021  0.000  0.007  0.228  0.000  0.000  0.000  0.683  0.939
 
band  22 # energy    4.36253316 # occ.  0.00000000
 
ion      s     py     pz     px    dxy    dyz    dz2    dxz    dx2    tot
  1  0.002  0.008  0.001  0.024  0.000  0.000  0.000  0.000  0.000  0.035
  2  0.002  0.008  0.002  0.024  0.000  0.000  0.000  0.000  0.000  0.035
  3  0.000  0.000  0.001  0.001  0.000  0.000  0.000  0.000  0.000  0.002
  4  0.000  0.000  0.000  0.000  0.000  0.000  0.000  0.000  0.000  0.000
  5  0.001  0.000  0.000  0.000  0.002  0.000  0.003  0.001  0.001  0.008
  6  0.010  0.004  0.000  0.011  0.195  0.000  0.530  0.000  0.065  0.814
tot  0.015  0.020  0.003  0.060  0.197  0.000  0.533  0.001  0.066  0.894
 
band  23 # energy    4.75142974 # occ.  0.00000000
 
ion      s     py     pz     px    dxy    dyz    dz2    dxz    dx2    tot
  1  0.004  0.000  0.008  0.001  0.000  0.000  0.000  0.000  0.000  0.014
  2  0.013  0.000  0.004  0.001  0.000  0.000  0.000  0.000  0.000  0.019
  3  0.029  0.002  0.049  0.007  0.000  0.000  0.000  0.000  0.000  0.087
  4  0.021  0.002  0.058  0.006  0.000  0.000  0.000  0.000  0.000  0.087
  5  0.000  0.000  0.000  0.000  0.000  0.087  0.000  0.258  0.000  0.345
  6  0.001  0.000  0.000  0.001  0.001  0.019  0.000  0.056  0.000  0.078
tot  0.067  0.006  0.119  0.018  0.001  0.105  0.001  0.314  0.000  0.631
 
band  24 # energy    5.17006890 # occ.  0.00000000
 
ion      s     py     pz     px    dxy    dyz    dz2    dxz    dx2    tot
  1  0.000  0.004  0.000  0.001  0.000  0.000  0.000  0.000  0.000  0.005
  2  0.000  0.002  0.000  0.001  0.000  0.000  0.000  0.000  0.000  0.002
  3  0.000  0.111  0.000  0.037  0.000  0.000  0.000  0.000  0.000  0.148
  4  0.000  0.115  0.000  0.038  0.000  0.000  0.000  0.000  0.000  0.153
  5  0.000  0.000  0.000  0.000  0.000  0.344  0.000  0.116  0.000  0.460
  6  0.000  0.000  0.000  0.000  0.000  0.011  0.000  0.004  0.001  0.016
tot  0.000  0.232  0.000  0.077  0.000  0.355  0.000  0.120  0.001  0.784
 
band  25 # energy    5.31943109 # occ.  0.00000000
 
ion      s     py     pz     px    dxy    dyz    dz2    dxz    dx2    tot
  1  0.025  0.002  0.053  0.007  0.000  0.000  0.000  0.000  0.000  0.087
  2  0.019  0.002  0.053  0.007  0.000  0.000  0.000  0.000  0.000  0.081
  3  0.001  0.000  0.024  0.002  0.000  0.000  0.000  0.000  0.000  0.027
  4  0.007  0.000  0.018  0.002  0.000  0.000  0.000  0.000  0.000  0.026
  5  0.001  0.000  0.000  0.001  0.000  0.017  0.000  0.049  0.000  0.069
  6  0.003  0.000  0.002  0.000  0.001  0.069  0.001  0.206  0.001  0.283
tot  0.056  0.006  0.148  0.018  0.002  0.086  0.001  0.255  0.001  0.573
 
band  26 # energy    5.83313625 # occ.  0.00000000
 
ion      s     py     pz     px    dxy    dyz    dz2    dxz    dx2    tot
  1  0.000  0.107  0.000  0.036  0.000  0.000  0.000  0.000  0.000  0.143
  2  0.000  0.108  0.000  0.036  0.000  0.000  0.000  0.000  0.000  0.144
  3  0.000  0.006  0.000  0.002  0.000  0.000  0.000  0.000  0.000  0.008
  4  0.000  0.003  0.000  0.001  0.000  0.000  0.000  0.000  0.000  0.005
  5  0.000  0.000  0.000  0.000  0.000  0.012  0.000  0.004  0.000  0.016
  6  0.000  0.000  0.000  0.000  0.000  0.349  0.000  0.116  0.000  0.466
tot  0.000  0.225  0.000  0.075  0.000  0.361  0.000  0.120  0.000  0.781
 
band  27 # energy    6.23848735 # occ.  0.00000000
 
ion      s     py     pz     px    dxy    dyz    dz2    dxz    dx2    tot
  1  0.004  0.002  0.000  0.006  0.000  0.000  0.000  0.000  0.000  0.012
  2  0.002  0.003  0.004  0.008  0.000  0.000  0.000  0.000  0.000  0.017
  3  0.002  0.000  0.008  0.000  0.000  0.000  0.000  0.000  0.000  0.011
  4  0.001  0.000  0.001  0.000  0.000  0.000  0.000  0.000  0.000  0.002
  5  0.008  0.000  0.001  0.001  0.001  0.000  0.001  0.001  0.000  0.014
  6  0.324  0.004  0.000  0.012  0.039  0.000  0.007  0.001  0.013  0.400
tot  0.341  0.009  0.014  0.026  0.041  0.000  0.008  0.003  0.013  0.455
 
band  28 # energy    7.13254754 # occ.  0.00000000
 
ion      s     py     pz     px    dxy    dyz    dz2    dxz    dx2    tot
  1  0.001  0.000  0.004  0.000  0.000  0.000  0.000  0.000  0.000  0.005
  2  0.005  0.000  0.002  0.001  0.000  0.000  0.000  0.000  0.000  0.008
  3  0.000  0.001  0.005  0.003  0.000  0.000  0.000  0.000  0.000  0.009
  4  0.000  0.001  0.004  0.002  0.000  0.000  0.000  0.000  0.000  0.008
  5  0.235  0.008  0.000  0.025  0.044  0.000  0.001  0.000  0.015  0.330
  6  0.002  0.002  0.002  0.007  0.002  0.000  0.000  0.000  0.001  0.016
tot  0.243  0.013  0.017  0.039  0.046  0.000  0.002  0.000  0.015  0.376
 
band  29 # energy    8.55759403 # occ.  0.00000000
 
ion      s     py     pz     px    dxy    dyz    dz2    dxz    dx2    tot
  1  0.002  0.000  0.004  0.000  0.000  0.000  0.000  0.000  0.000  0.006
  2  0.004  0.000  0.002  0.000  0.000  0.000  0.000  0.000  0.000  0.006
  3  0.009  0.000  0.001  0.001  0.000  0.000  0.000  0.000  0.000  0.011
  4  0.000  0.000  0.006  0.000  0.000  0.000  0.000  0.000  0.000  0.006
  5  0.000  0.001  0.048  0.003  0.003  0.003  0.002  0.011  0.001  0.071
  6  0.001  0.000  0.085  0.000  0.000  0.005  0.000  0.016  0.000  0.107
tot  0.016  0.001  0.146  0.004  0.003  0.008  0.002  0.026  0.001  0.208
 
band  30 # energy    8.91308665 # occ.  0.00000000
 
ion      s     py     pz     px    dxy    dyz    dz2    dxz    dx2    tot
  1  0.025  0.000  0.005  0.000  0.000  0.000  0.000  0.000  0.000  0.030
  2  0.011  0.000  0.010  0.000  0.000  0.000  0.000  0.000  0.000  0.021
  3  0.006  0.000  0.003  0.000  0.000  0.000  0.000  0.000  0.000  0.010
  4  0.026  0.000  0.001  0.000  0.000  0.000  0.000  0.000  0.000  0.028
  5  0.023  0.003  0.038  0.010  0.006  0.001  0.006  0.003  0.002  0.093
  6  0.011  0.007  0.020  0.021  0.013  0.001  0.004  0.002  0.004  0.083
tot  0.103  0.010  0.077  0.031  0.019  0.002  0.011  0.005  0.006  0.264
 
band  31 # energy    9.25220195 # occ.  0.00000000
 
ion      s     py     pz     px    dxy    dyz    dz2    dxz    dx2    tot
  1  0.008  0.000  0.013  0.000  0.000  0.000  0.000  0.000  0.000  0.021
  2  0.021  0.000  0.003  0.000  0.000  0.000  0.000  0.000  0.000  0.024
  3  0.005  0.001  0.005  0.005  0.000  0.000  0.000  0.000  0.000  0.016
  4  0.000  0.000  0.009  0.000  0.000  0.000  0.000  0.000  0.000  0.009
  5  0.016  0.000  0.024  0.000  0.000  0.019  0.001  0.054  0.000  0.114
  6  0.017  0.006  0.037  0.016  0.009  0.003  0.001  0.008  0.003  0.100
tot  0.067  0.008  0.091  0.021  0.009  0.022  0.002  0.062  0.003  0.284
 
band  32 # energy    9.65067398 # occ.  0.00000000
 
ion      s     py     pz     px    dxy    dyz    dz2    dxz    dx2    tot
  1  0.005  0.000  0.000  0.000  0.000  0.000  0.000  0.000  0.000  0.006
  2  0.006  0.003  0.032  0.009  0.000  0.000  0.000  0.000  0.000  0.050
  3  0.026  0.002  0.031  0.005  0.000  0.000  0.000  0.000  0.000  0.064
  4  0.018  0.000  0.001  0.001  0.000  0.000  0.000  0.000  0.000  0.020
  5  0.020  0.010  0.006  0.027  0.019  0.005  0.011  0.016  0.006  0.119
  6  0.000  0.006  0.005  0.018  0.005  0.015  0.001  0.045  0.002  0.097
tot  0.075  0.021  0.076  0.060  0.025  0.020  0.012  0.061  0.008  0.356
 
band  33 # energy   10.06595631 # occ.  0.00000000
 
ion      s     py     pz     px    dxy    dyz    dz2    dxz    dx2    tot
  1  0.012  0.001  0.003  0.004  0.000  0.000  0.000  0.000  0.000  0.019
  2  0.000  0.001  0.006  0.002  0.000  0.000  0.000  0.000  0.000  0.009
  3  0.000  0.000  0.003  0.001  0.000  0.000  0.000  0.000  0.000  0.005
  4  0.009  0.003  0.002  0.007  0.000  0.000  0.000  0.000  0.000  0.021
  5  0.000  0.001  0.014  0.005  0.005  0.009  0.002  0.029  0.002  0.069
  6  0.001  0.002  0.003  0.005  0.006  0.010  0.002  0.031  0.002  0.062
tot  0.022  0.008  0.031  0.024  0.011  0.020  0.005  0.060  0.004  0.185
 
band  34 # energy   10.46270244 # occ.  0.00000000
 
ion      s     py     pz     px    dxy    dyz    dz2    dxz    dx2    tot
  1  0.000  0.006  0.005  0.016  0.000  0.000  0.000  0.000  0.000  0.027
  2  0.003  0.000  0.008  0.000  0.000  0.000  0.000  0.000  0.000  0.011
  3  0.001  0.000  0.000  0.000  0.000  0.000  0.000  0.000  0.000  0.001
  4  0.000  0.003  0.002  0.007  0.000  0.000  0.000  0.000  0.000  0.013
  5  0.005  0.001  0.005  0.004  0.002  0.004  0.003  0.013  0.001  0.038
  6  0.007  0.000  0.005  0.002  0.005  0.015  0.004  0.047  0.002  0.088
tot  0.016  0.010  0.026  0.030  0.007  0.020  0.008  0.060  0.002  0.178
 
band  35 # energy   10.65381793 # occ.  0.00000000
 
ion      s     py     pz     px    dxy    dyz    dz2    dxz    dx2    tot
  1  0.003  0.000  0.000  0.002  0.000  0.000  0.000  0.000  0.000  0.005
  2  0.000  0.002  0.000  0.005  0.000  0.000  0.000  0.000  0.000  0.007
  3  0.000  0.001  0.000  0.004  0.000  0.000  0.000  0.000  0.000  0.006
  4  0.001  0.001  0.000  0.002  0.000  0.000  0.000  0.000  0.000  0.004
  5  0.002  0.002  0.003  0.006  0.022  0.000  0.023  0.000  0.007  0.066
  6  0.001  0.002  0.005  0.003  0.013  0.000  0.015  0.001  0.005  0.046
tot  0.008  0.008  0.010  0.022  0.035  0.000  0.038  0.001  0.012  0.135
 
band  36 # energy   11.09221607 # occ.  0.00000000
 
ion      s     py     pz     px    dxy    dyz    dz2    dxz    dx2    tot
  1  0.000  0.000  0.014  0.000  0.000  0.000  0.000  0.000  0.000  0.015
  2  0.003  0.000  0.000  0.001  0.000  0.000  0.000  0.000  0.000  0.004
  3  0.003  0.000  0.001  0.000  0.000  0.000  0.000  0.000  0.000  0.004
  4  0.000  0.000  0.014  0.000  0.000  0.000  0.000  0.000  0.000  0.014
  5  0.000  0.001  0.000  0.001  0.004  0.000  0.002  0.001  0.001  0.012
  6  0.001  0.000  0.000  0.000  0.009  0.001  0.006  0.004  0.003  0.025
tot  0.008  0.001  0.030  0.003  0.014  0.002  0.008  0.005  0.004  0.074
 
band  37 # energy   11.79111193 # occ.  0.00000000
 
ion      s     py     pz     px    dxy    dyz    dz2    dxz    dx2    tot
  1  0.000  0.009  0.000  0.003  0.000  0.000  0.000  0.000  0.000  0.012
  2  0.000  0.004  0.000  0.001  0.000  0.000  0.000  0.000  0.000  0.005
  3  0.000  0.000  0.000  0.000  0.000  0.000  0.000  0.000  0.000  0.000
  4  0.000  0.003  0.000  0.001  0.000  0.000  0.000  0.000  0.000  0.004
  5  0.000  0.043  0.000  0.015  0.000  0.001  0.000  0.000  0.001  0.060
  6  0.000  0.134  0.000  0.049  0.001  0.001  0.000  0.000  0.002  0.186
tot  0.000  0.193  0.000  0.069  0.001  0.002  0.000  0.000  0.003  0.269
 
band  38 # energy   11.81565820 # occ.  0.00000000
 
ion      s     py     pz     px    dxy    dyz    dz2    dxz    dx2    tot
  1  0.002  0.001  0.017  0.002  0.000  0.000  0.000  0.000  0.000  0.022
  2  0.000  0.000  0.006  0.000  0.000  0.000  0.000  0.000  0.000  0.006
  3  0.001  0.000  0.002  0.000  0.000  0.000  0.000  0.000  0.000  0.002
  4  0.002  0.001  0.014  0.003  0.000  0.000  0.000  0.000  0.000  0.019
  5  0.002  0.002  0.004  0.007  0.000  0.003  0.000  0.008  0.000  0.027
  6  0.003  0.005  0.002  0.009  0.000  0.002  0.002  0.007  0.000  0.030
tot  0.008  0.009  0.045  0.021  0.001  0.005  0.002  0.015  0.000  0.106
 
band  39 # energy   12.01958284 # occ.  0.00000000
 
ion      s     py     pz     px    dxy    dyz    dz2    dxz    dx2    tot
  1  0.000  0.000  0.018  0.001  0.000  0.000  0.000  0.000  0.000  0.020
  2  0.004  0.001  0.003  0.002  0.000  0.000  0.000  0.000  0.000  0.010
  3  0.002  0.001  0.002  0.003  0.000  0.000  0.000  0.000  0.000  0.008
  4  0.000  0.001  0.015  0.003  0.000  0.000  0.000  0.000  0.000  0.019
  5  0.003  0.001  0.000  0.005  0.019  0.000  0.009  0.000  0.007  0.044
  6  0.000  0.002  0.001  0.005  0.015  0.000  0.006  0.001  0.005  0.035
tot  0.009  0.006  0.039  0.020  0.034  0.000  0.016  0.001  0.011  0.136
 
band  40 # energy   12.54123037 # occ.  0.00000000
 
ion      s     py     pz     px    dxy    dyz    dz2    dxz    dx2    tot
  1  0.000  0.002  0.000  0.000  0.000  0.000  0.000  0.000  0.000  0.003
  2  0.000  0.008  0.001  0.003  0.000  0.000  0.000  0.000  0.000  0.012
  3  0.000  0.011  0.001  0.002  0.000  0.000  0.000  0.000  0.000  0.014
  4  0.000  0.006  0.000  0.002  0.000  0.000  0.000  0.000  0.000  0.008
  5  0.000  0.123  0.000  0.043  0.001  0.000  0.000  0.001  0.002  0.169
  6  0.000  0.056  0.001  0.018  0.000  0.002  0.000  0.001  0.000  0.078
tot  0.000  0.206  0.002  0.069  0.001  0.002  0.000  0.002  0.002  0.284
 

 k-point    2 :    0.48000000 0.00000000 0.00000000     weight = 0.01282051

band   1 # energy  -11.60466292 # occ.  2.00000000
 
ion      s     py     pz     px    dxy    dyz    dz2    dxz    dx2    tot
  1  0.264  0.000  0.006  0.000  0.000  0.000  0.000  0.000  0.000  0.271
  2  0.347  0.000  0.007  0.000  0.000  0.000  0.000  0.000  0.000  0.355
  3  0.010  0.000  0.000  0.000  0.000  0.000  0.000  0.000  0.000  0.011
  4  0.001  0.000  0.000  0.000  0.000  0.000  0.000  0.000  0.000  0.001
  5  0.000  0.000  0.000  0.000  0.000  0.000  0.000  0.000  0.000  0.002
  6  0.031  0.014  0.000  0.041  0.043  0.000  0.000  0.000  0.014  0.143
tot  0.654  0.014  0.014  0.042  0.044  0.000  0.000  0.001  0.015  0.783
 
band   2 # energy  -11.37381328 # occ.  2.00000000
 
ion      s     py     pz     px    dxy    dyz    dz2    dxz    dx2    tot
  1  0.047  0.000  0.001  0.000  0.000  0.000  0.000  0.000  0.000  0.047
  2  0.004  0.000  0.000  0.000  0.000  0.000  0.000  0.000  0.000  0.004
  3  0.337  0.000  0.006  0.000  0.000  0.000  0.000  0.000  0.000  0.344
  4  0.252  0.000  0.005  0.000  0.000  0.000  0.000  0.000  0.000  0.257
  5  0.019  0.011  0.000  0.034  0.034  0.000  0.000  0.000  0.011  0.110
  6  0.001  0.000  0.000  0.001  0.001  0.002  0.000  0.005  0.000  0.011
tot  0.659  0.012  0.012  0.035  0.035  0.002  0.000  0.006  0.012  0.772
 
band   3 # energy  -11.27075388 # occ.  2.00000000
 
ion      s     py     pz     px    dxy    dyz    dz2    dxz    dx2    tot
  1  0.324  0.000  0.003  0.000  0.000  0.000  0.000  0.000  0.000  0.328
  2  0.276  0.000  0.003  0.000  0.000  0.000  0.000  0.000  0.000  0.279
  3  0.006  0.000  0.000  0.000  0.000  0.000  0.000  0.000  0.000  0.006
  4  0.046  0.000  0.001  0.000  0.000  0.000  0.000  0.000  0.000  0.046
  5  0.001  0.001  0.000  0.003  0.003  0.000  0.000  0.001  0.001  0.010
  6  0.000  0.000  0.006  0.000  0.000  0.030  0.000  0.091  0.000  0.128
tot  0.653  0.001  0.014  0.003  0.003  0.031  0.000  0.092  0.001  0.798
 
band   4 # energy  -11.10947145 # occ.  2.00000000
 
ion      s     py     pz     px    dxy    dyz    dz2    dxz    dx2    tot
  1  0.003  0.000  0.000  0.000  0.000  0.000  0.000  0.000  0.000  0.003
  2  0.011  0.000  0.000  0.000  0.000  0.000  0.000  0.000  0.000  0.011
  3  0.295  0.000  0.002  0.000  0.000  0.000  0.000  0.000  0.000  0.298
  4  0.350  0.000  0.003  0.000  0.000  0.000  0.000  0.000  0.000  0.354
  5  0.000  0.000  0.006  0.000  0.000  0.028  0.000  0.085  0.000  0.119
  6  0.000  0.000  0.000  0.000  0.000  0.001  0.000  0.002  0.000  0.003
tot  0.659  0.000  0.012  0.001  0.000  0.029  0.000  0.087  0.000  0.788
 
band   5 # energy   -5.37400859 # occ.  2.00000000
 
ion      s     py     pz     px    dxy    dyz    dz2    dxz    dx2    tot
  1  0.009  0.034  0.006  0.101  0.000  0.000  0.000  0.000  0.000  0.150
  2  0.009  0.037  0.007  0.110  0.000  0.000  0.000  0.000  0.000  0.162
  3  0.000  0.001  0.001  0.003  0.000  0.000  0.000  0.000  0.000  0.005
  4  0.000  0.000  0.000  0.001  0.000  0.000  0.000  0.000  0.000  0.002
  5  0.002  0.000  0.000  0.000  0.002  0.000  0.000  0.000  0.001  0.005
  6  0.163  0.007  0.000  0.022  0.063  0.000  0.018  0.000  0.021  0.295
tot  0.183  0.079  0.014  0.236  0.065  0.000  0.019  0.000  0.022  0.618
 
band   6 # energy   -4.82161209 # occ.  2.00000000
 
ion      s     py     pz     px    dxy    dyz    dz2    dxz    dx2    tot
  1  0.000  0.002  0.000  0.005  0.000  0.000  0.000  0.000  0.000  0.006
  2  0.000  0.000  0.000  0.001  0.000  0.000  0.000  0.000  0.000  0.002
  3  0.006  0.039  0.006  0.116  0.000  0.000  0.000  0.000  0.000  0.166
  4  0.006  0.036  0.006  0.108  0.000  0.000  0.000  0.000  0.000  0.156
  5  0.117  0.006  0.000  0.018  0.066  0.000  0.022  0.000  0.022  0.252
  6  0.004  0.000  0.000  0.001  0.001  0.000  0.001  0.000  0.000  0.007