       N       E                     dE             d eps       ncg     rms          rms(c)
DAV:   1     0.357437206765E+04    0.35744E+04   -0.18000E+05   808   0.786E+02
DAV:   2    -0.384882308641E+03   -0.39593E+04   -0.38568E+04  1056   0.223E+02
DAV:   3    -0.843016655214E+03   -0.45813E+03   -0.45239E+03   872   0.833E+01
DAV:   4    -0.866870815555E+03   -0.23854E+02   -0.23739E+02  1096   0.185E+01
DAV:   5    -0.867591749305E+03   -0.72093E+00   -0.71946E+00  1112   0.340E+00    0.174E+02
RMM:   6    -0.823892838231E+03    0.43699E+02   -0.32553E+02   845   0.168E+01    0.772E+01
RMM:   7    -0.818167516868E+03    0.57253E+01   -0.77186E+01   785   0.779E+00    0.337E+01
RMM:   8    -0.813953535099E+03    0.42140E+01   -0.18673E+01   807   0.430E+00    0.601E+00
RMM:   9    -0.813687819586E+03    0.26572E+00   -0.31620E+00   935   0.156E+00    0.378E+00
RMM:  10    -0.813511001985E+03    0.17682E+00   -0.54409E-01   831   0.692E-01    0.203E+00
RMM:  11    -0.813480357471E+03    0.30645E-01   -0.43423E-01   811   0.688E-01    0.125E+00
RMM:  12    -0.813468202449E+03    0.12155E-01   -0.43058E-02   882   0.211E-01    0.871E-01
RMM:  13    -0.813464477073E+03    0.37254E-02   -0.12439E-02   881   0.101E-01    0.498E-01
RMM:  14    -0.813465076202E+03   -0.59913E-03   -0.10468E-02   787   0.948E-02    0.168E-01
RMM:  15    -0.813465325949E+03   -0.24975E-03   -0.21516E-03   885   0.433E-02    0.796E-02
RMM:  16    -0.813465970076E+03   -0.64413E-03   -0.93214E-04   935   0.242E-02    0.460E-02
RMM:  17    -0.813467489977E+03   -0.15199E-02   -0.31187E-04   808   0.169E-02    0.328E-02
RMM:  18    -0.813469074806E+03   -0.15848E-02   -0.43874E-04   776   0.183E-02    0.271E-02
RMM:  19    -0.813469881991E+03   -0.80719E-03   -0.21679E-04   780   0.125E-02    0.267E-02
RMM:  20    -0.813470353555E+03   -0.47156E-03   -0.10269E-04   783   0.850E-03    0.148E-02
RMM:  21    -0.813470555176E+03   -0.20162E-03   -0.44895E-05   815   0.561E-03    0.668E-03
RMM:  22    -0.813470743076E+03   -0.18790E-03   -0.16982E-05   730   0.372E-03    0.872E-03
RMM:  23    -0.813470892894E+03   -0.14982E-03   -0.60374E-06   565   0.233E-03    0.656E-03
RMM:  24    -0.813471060532E+03   -0.16764E-03   -0.58665E-06   558   0.238E-03    0.269E-03
RMM:  25    -0.813471167721E+03   -0.10719E-03   -0.42506E-06   537   0.176E-03    0.244E-03
RMM:  26    -0.813471230303E+03   -0.62582E-04   -0.23673E-06   479   0.121E-03    0.192E-03
RMM:  27    -0.813471265296E+03   -0.34993E-04   -0.14375E-06   411   0.941E-04    0.115E-03
RMM:  28    -0.813471286877E+03   -0.21581E-04   -0.11480E-06   456   0.821E-04    0.548E-04
RMM:  29    -0.813471292432E+03   -0.55554E-05   -0.36261E-07   250   0.488E-04    0.316E-04
RMM:  30    -0.813471295265E+03   -0.28323E-05   -0.23776E-07   288   0.465E-04    0.148E-04
RMM:  31    -0.813471296357E+03   -0.10919E-05   -0.13477E-07   255   0.394E-04    0.819E-05
RMM:  32    -0.813471296538E+03   -0.18188E-06   -0.46106E-08   175   0.313E-04
    1 T=   305. E= -.83929007E+03 F= -.84350483E+03 E0= -.84350483E+03  EK= 0.42148E+01 SP= 0.00E+00 SK= 0.00E+00
       N       E                     dE             d eps       ncg     rms          rms(c)
DAV:   1    -0.813497196625E+03   -0.25900E-01   -0.23622E+00   864   0.196E+00    0.128E+00
RMM:   2    -0.813507836835E+03   -0.10640E-01   -0.12518E-01   776   0.469E-01    0.468E-01
RMM:   3    -0.813508196428E+03   -0.35959E-03   -0.93688E-03   933   0.100E-01    0.355E-01
RMM:   4    -0.813508249281E+03   -0.52853E-04   -0.37136E-03   785   0.566E-02    0.255E-01
RMM:   5    -0.813507841494E+03    0.40779E-03   -0.20508E-03   777   0.455E-02    0.518E-02
RMM:   6    -0.813507773620E+03    0.67874E-04   -0.13023E-04   870   0.117E-02    0.353E-02
RMM:   7    -0.813507739058E+03    0.34563E-04   -0.87357E-05   793   0.869E-03    0.222E-02
RMM:   8    -0.813507727463E+03    0.11595E-04   -0.12167E-04   785   0.103E-02    0.849E-03
RMM:   9    -0.813507727304E+03    0.15952E-06   -0.85620E-06   708   0.319E-03
    2 T=   307. E= -.83929018E+03 F= -.84354010E+03 E0= -.84354010E+03  EK= 0.42499E+01 SP= 0.00E+00 SK= 0.00E+00
       N       E                     dE             d eps       ncg     rms          rms(c)
DAV:   1    -0.813543734177E+03   -0.36007E-01   -0.75837E-03  1392   0.594E-01    0.328E-01
RMM:   2    -0.813544661450E+03   -0.92727E-03   -0.10530E-02   776   0.121E-01    0.125E-01
RMM:   3    -0.813544680542E+03   -0.19093E-04   -0.66524E-04   953   0.260E-02    0.104E-01
RMM:   4    -0.813544669744E+03    0.10798E-04   -0.86104E-05   977   0.858E-03    0.768E-02
RMM:   5    -0.813544663133E+03    0.66119E-05   -0.32851E-05   795   0.546E-03    0.448E-02
RMM:   6    -0.813544661805E+03    0.13278E-05   -0.91380E-06   731   0.307E-03    0.231E-02
RMM:   7    -0.813544661993E+03   -0.18853E-06   -0.16587E-06   452   0.161E-03
    3 T=   310. E= -.83929029E+03 F= -.84357607E+03 E0= -.84357607E+03  EK= 0.42858E+01 SP= 0.00E+00 SK= 0.00E+00
       N       E                     dE             d eps       ncg     rms          rms(c)
DAV:   1    -0.813580813386E+03   -0.36152E-01   -0.11635E-02  1440   0.591E-01    0.906E-02
RMM:   2    -0.813581354928E+03   -0.54154E-03   -0.56891E-03   914   0.852E-02    0.296E-02
RMM:   3    -0.813581393274E+03   -0.38346E-04   -0.50527E-04   993   0.212E-02    0.337E-02
RMM:   4    -0.813581395907E+03   -0.26333E-05   -0.51551E-05   995   0.639E-03    0.302E-02
RMM:   5    -0.813581395005E+03    0.90282E-06   -0.33411E-06   507   0.184E-03
    4 T=   312. E= -.83929033E+03 F= -.84361203E+03 E0= -.84361203E+03  EK= 0.43217E+01 SP= 0.00E+00 SK= 0.00E+00
       N       E                     dE             d eps       ncg     rms          rms(c)
DAV:   1    -0.813616901437E+03   -0.35506E-01   -0.39056E-03  1428   0.591E-01    0.288E-02
RMM:   2    -0.813617182968E+03   -0.28153E-03   -0.29984E-03   929   0.583E-02    0.331E-02
RMM:   3    -0.813617205952E+03   -0.22984E-04   -0.30005E-04  1038   0.154E-02    0.372E-02
RMM:   4    -0.813617206814E+03   -0.86198E-06   -0.15058E-05   672   0.348E-03    0.357E-02
RMM:   5    -0.813617206488E+03    0.32583E-06   -0.14806E-06   458   0.141E-03
    5 T=   315. E= -.83929038E+03 F= -.84364729E+03 E0= -.84364729E+03  EK= 0.43569E+01 SP= 0.00E+00 SK= 0.00E+00
       N       E                     dE             d eps       ncg     rms          rms(c)
DAV:   1    -0.813651111913E+03   -0.33905E-01   -0.31526E-03  1464   0.593E-01    0.344E-02
RMM:   2    -0.813651369906E+03   -0.25799E-03   -0.27802E-03   931   0.567E-02    0.301E-02
RMM:   3    -0.813651391744E+03   -0.21837E-04   -0.28061E-04  1026   0.150E-02    0.326E-02
RMM:   4    -0.813651392867E+03   -0.11234E-05   -0.17670E-05   697   0.381E-03    0.308E-02
RMM:   5    -0.813651392552E+03    0.31448E-06   -0.26226E-06   477   0.183E-03
    6 T=   317. E= -.83929043E+03 F= -.84368114E+03 E0= -.84368114E+03  EK= 0.43907E+01 SP= 0.00E+00 SK= 0.00E+00
       N       E                     dE             d eps       ncg     rms          rms(c)
DAV:   1    -0.813682997315E+03   -0.31604E-01   -0.32752E-03  1452   0.596E-01    0.895E-02
RMM:   2    -0.813683277749E+03   -0.28043E-03   -0.30722E-03   932   0.585E-02    0.156E-02
RMM:   3    -0.813683302669E+03   -0.24919E-04   -0.31185E-04  1003   0.164E-02    0.144E-02
RMM:   4    -0.813683302338E+03    0.33060E-06   -0.43971E-05   985   0.601E-03    0.784E-03
RMM:   5    -0.813683302548E+03   -0.21035E-06   -0.29250E-06   502   0.163E-03
    7 T=   320. E= -.83929047E+03 F= -.84371292E+03 E0= -.84371292E+03  EK= 0.44225E+01 SP= 0.00E+00 SK= 0.00E+00
       N       E                     dE             d eps       ncg     rms          rms(c)
DAV:   1    -0.813712025339E+03   -0.28723E-01   -0.25903E-03  1456   0.599E-01    0.412E-02
RMM:   2    -0.813712298871E+03   -0.27353E-03   -0.29152E-03   936   0.547E-02    0.209E-02
RMM:   3    -0.813712321930E+03   -0.23059E-04   -0.28671E-04  1023   0.151E-02    0.218E-02
RMM:   4    -0.813712322961E+03   -0.10305E-05   -0.17925E-05   715   0.379E-03    0.191E-02
RMM:   5    -0.813712322824E+03    0.13625E-06   -0.16631E-06   463   0.147E-03
    8 T=   322. E= -.83929051E+03 F= -.84374205E+03 E0= -.84374205E+03  EK= 0.44515E+01 SP= 0.00E+00 SK= 0.00E+00
       N       E                     dE             d eps       ncg     rms          rms(c)
DAV:   1    -0.813737588500E+03   -0.25266E-01   -0.30100E-03  1408   0.601E-01    0.358E-02
RMM:   2    -0.813737890457E+03   -0.30196E-03   -0.31958E-03   928   0.567E-02    0.234E-02
RMM:   3    -0.813737918686E+03   -0.28229E-04   -0.32537E-04  1033   0.160E-02    0.256E-02
RMM:   4    -0.813737919976E+03   -0.12907E-05   -0.17206E-05   729   0.370E-03    0.231E-02
RMM:   5    -0.813737920412E+03   -0.43579E-06   -0.14320E-06   456   0.139E-03
    9 T=   324. E= -.83929054E+03 F= -.84376798E+03 E0= -.84376798E+03  EK= 0.44774E+01 SP= 0.00E+00 SK= 0.00E+00
       N       E                     dE             d eps       ncg     rms          rms(c)
DAV:   1    -0.813759348078E+03   -0.21428E-01   -0.28367E-03  1444   0.602E-01    0.533E-02
RMM:   2    -0.813759619887E+03   -0.27181E-03   -0.29617E-03   937   0.558E-02    0.197E-02
RMM:   3    -0.813759643473E+03   -0.23586E-04   -0.29555E-04  1017   0.155E-02    0.205E-02
RMM:   4    -0.813759644871E+03   -0.13977E-05   -0.26013E-05   881   0.449E-03    0.175E-02
RMM:   5    -0.813759645072E+03   -0.20117E-06   -0.22728E-06   485   0.157E-03
   10 T=   325. E= -.83929057E+03 F= -.84379026E+03 E0= -.84379026E+03  EK= 0.44997E+01 SP= 0.00E+00 SK= 0.00E+00
       N       E                     dE             d eps       ncg     rms          rms(c)
DAV:   1    -0.813776769608E+03   -0.17125E-01   -0.37365E-03  1432   0.605E-01    0.454E-02
RMM:   2    -0.813777096278E+03   -0.32667E-03   -0.34552E-03   930   0.606E-02    0.213E-02
RMM:   3    -0.813777124582E+03   -0.28304E-04   -0.34000E-04  1023   0.165E-02    0.238E-02
RMM:   4    -0.813777126070E+03   -0.14882E-05   -0.23497E-05   781   0.426E-03    0.212E-02
RMM:   5    -0.813777126025E+03    0.44718E-07   -0.16498E-06   466   0.145E-03
   11 T=   327. E= -.83929060E+03 F= -.84380853E+03 E0= -.84380853E+03  EK= 0.45179E+01 SP= 0.00E+00 SK= 0.00E+00
       N       E                     dE             d eps       ncg     rms          rms(c)
DAV:   1    -0.813789675727E+03   -0.12550E-01   -0.50630E-03  1448   0.607E-01    0.508E-02
RMM:   2    -0.813790034863E+03   -0.35914E-03   -0.37892E-03   916   0.656E-02    0.239E-02
RMM:   3    -0.813790067117E+03   -0.32253E-04   -0.37341E-04  1019   0.174E-02    0.278E-02
RMM:   4    -0.813790069000E+03   -0.18833E-05   -0.26045E-05   800   0.451E-03    0.249E-02
RMM:   5    -0.813790069153E+03   -0.15328E-06   -0.17284E-06   473   0.145E-03
   12 T=   328. E= -.83929062E+03 F= -.84382248E+03 E0= -.84382248E+03  EK= 0.45319E+01 SP= 0.00E+00 SK= 0.00E+00
       N       E                     dE             d eps       ncg     rms          rms(c)
DAV:   1    -0.813797852334E+03   -0.77833E-02   -0.46670E-03  1408   0.608E-01    0.279E-02
RMM:   2    -0.813798268749E+03   -0.41642E-03   -0.43164E-03   928   0.662E-02    0.346E-02
RMM:   3    -0.813798307978E+03   -0.39229E-04   -0.43785E-04  1029   0.184E-02    0.389E-02
RMM:   4    -0.813798309537E+03   -0.15594E-05   -0.22386E-05   705   0.413E-03    0.367E-02
RMM:   5    -0.813798309658E+03   -0.12059E-06   -0.17322E-06   462   0.148E-03
   13 T=   328. E= -.83929062E+03 F= -.84383195E+03 E0= -.84383195E+03  EK= 0.45413E+01 SP= 0.00E+00 SK= 0.00E+00
       N       E                     dE             d eps       ncg     rms          rms(c)
DAV:   1    -0.813801312257E+03   -0.30027E-02   -0.54793E-03  1416   0.608E-01    0.631E-02
RMM:   2    -0.813801733763E+03   -0.42151E-03   -0.44466E-03   911   0.691E-02    0.205E-02
RMM:   3    -0.813801773447E+03   -0.39684E-04   -0.44208E-04  1021   0.190E-02    0.249E-02
RMM:   4    -0.813801775832E+03   -0.23858E-05   -0.32626E-05   910   0.506E-03    0.209E-02
RMM:   5    -0.813801776676E+03   -0.84394E-06   -0.23948E-06   474   0.167E-03
   14 T=   329. E= -.83929063E+03 F= -.84383687E+03 E0= -.84383687E+03  EK= 0.45462E+01 SP= 0.00E+00 SK= 0.00E+00
       N       E                     dE             d eps       ncg     rms          rms(c)
DAV:   1    -0.813799968538E+03    0.18073E-02   -0.53170E-03  1388   0.608E-01    0.809E-02
RMM:   2    -0.813800426652E+03   -0.45811E-03   -0.48530E-03   920   0.697E-02    0.173E-02
RMM:   3    -0.813800463448E+03   -0.36796E-04   -0.44562E-04   996   0.196E-02    0.193E-02
RMM:   4    -0.813800465481E+03   -0.20330E-05   -0.49169E-05  1018   0.614E-03    0.155E-02
RMM:   5    -0.813800465773E+03   -0.29258E-06   -0.28646E-06   496   0.156E-03
   15 T=   329. E= -.83929063E+03 F= -.84383721E+03 E0= -.84383721E+03  EK= 0.45466E+01 SP= 0.00E+00 SK= 0.00E+00
       N       E                     dE             d eps       ncg     rms          rms(c)
DAV:   1    -0.813794028631E+03    0.64369E-02   -0.51028E-03  1408   0.608E-01    0.461E-02
RMM:   2    -0.813794433235E+03   -0.40460E-03   -0.41811E-03   917   0.664E-02    0.243E-02
RMM:   3    -0.813794472613E+03   -0.39377E-04   -0.41629E-04  1022   0.182E-02    0.287E-02
RMM:   4    -0.813794474915E+03   -0.23025E-05   -0.24218E-05   763   0.432E-03    0.259E-02
RMM:   5    -0.813794475421E+03   -0.50533E-06   -0.13683E-06   455   0.134E-03
   16 T=   328. E= -.83929061E+03 F= -.84383307E+03 E0= -.84383307E+03  EK= 0.45425E+01 SP= 0.00E+00 SK= 0.00E+00
       N       E                     dE             d eps       ncg     rms          rms(c)
DAV:   1    -0.813783632180E+03    0.10843E-01   -0.41343E-03  1504   0.606E-01    0.367E-02
RMM:   2    -0.813783979146E+03   -0.34697E-03   -0.36249E-03   935   0.637E-02    0.330E-02
RMM:   3    -0.813784013466E+03   -0.34320E-04   -0.38734E-04  1018   0.173E-02    0.356E-02
RMM:   4    -0.813784015834E+03   -0.23677E-05   -0.27408E-05   738   0.466E-03    0.342E-02
RMM:   5    -0.813784016741E+03   -0.90743E-06   -0.26758E-06   496   0.176E-03
   17 T=   328. E= -.83929060E+03 F= -.84382466E+03 E0= -.84382466E+03  EK= 0.45341E+01 SP= 0.00E+00 SK= 0.00E+00
       N       E                     dE             d eps       ncg     rms          rms(c)
DAV:   1    -0.813768941582E+03    0.15074E-01   -0.52369E-03  1440   0.603E-01    0.735E-02
RMM:   2    -0.813769309621E+03   -0.36804E-03   -0.39327E-03   919   0.667E-02    0.163E-02
RMM:   3    -0.813769343293E+03   -0.33672E-04   -0.39118E-04  1011   0.180E-02    0.202E-02
RMM:   4    -0.813769345382E+03   -0.20897E-05   -0.37121E-05   945   0.539E-03    0.166E-02
RMM:   5    -0.813769345919E+03   -0.53644E-06   -0.26214E-06   492   0.168E-03
   18 T=   327. E= -.83929060E+03 F= -.84381221E+03 E0= -.84381221E+03  EK= 0.45216E+01 SP= 0.00E+00 SK= 0.00E+00
       N       E                     dE             d eps       ncg     rms          rms(c)
DAV:   1    -0.813750385226E+03    0.18960E-01   -0.35951E-03  1444   0.603E-01    0.588E-02
RMM:   2    -0.813750704887E+03   -0.31966E-03   -0.33597E-03   927   0.596E-02    0.176E-02
RMM:   3    -0.813750733470E+03   -0.28583E-04   -0.32498E-04  1009   0.165E-02    0.197E-02
RMM:   4    -0.813750736411E+03   -0.29404E-05   -0.31005E-05   894   0.484E-03    0.168E-02
RMM:   5    -0.813750737903E+03   -0.14920E-05   -0.19059E-06   471   0.151E-03    0.131E-02
RMM:   6    -0.813750742332E+03   -0.44294E-05   -0.24303E-06   475   0.156E-03    0.557E-03
RMM:   7    -0.813750745217E+03   -0.28846E-05   -0.10197E-06   452   0.114E-03    0.274E-03
RMM:   8    -0.813750747623E+03   -0.24066E-05   -0.48873E-07   436   0.795E-04    0.152E-03
RMM:   9    -0.813750749737E+03   -0.21139E-05   -0.25607E-07   358   0.573E-04    0.794E-04
RMM:  10    -0.813750751859E+03   -0.21212E-05   -0.16433E-07   307   0.478E-04    0.192E-04
RMM:  11    -0.813750753209E+03   -0.13505E-05   -0.11613E-07   278   0.427E-04    0.365E-04
RMM:  12    -0.813750754141E+03   -0.93180E-06   -0.66444E-08   199   0.386E-04
   19 T=   326. E= -.83929058E+03 F= -.84379601E+03 E0= -.84379601E+03  EK= 0.45054E+01 SP= 0.00E+00 SK= 0.00E+00
       N       E                     dE             d eps       ncg     rms          rms(c)
DAV:   1    -0.813728206681E+03    0.22547E-01   -0.39741E-03  1424   0.600E-01    0.597E-02
RMM:   2    -0.813728584765E+03   -0.37808E-03   -0.39772E-03   927   0.632E-02    0.179E-02
RMM:   3    -0.813728618801E+03   -0.34036E-04   -0.39675E-04  1029   0.178E-02    0.202E-02
RMM:   4    -0.813728620854E+03   -0.20533E-05   -0.28065E-05   885   0.459E-03    0.166E-02
RMM:   5    -0.813728621360E+03   -0.50564E-06   -0.18759E-06   474   0.145E-03
   20 T=   324. E= -.83929057E+03 F= -.84377641E+03 E0= -.84377641E+03  EK= 0.44858E+01 SP= 0.00E+00 SK= 0.00E+00
       N       E                     dE             d eps       ncg     rms          rms(c)
DAV:   1    -0.813702955404E+03    0.25665E-01   -0.51038E-03  1424   0.598E-01    0.344E-02
RMM:   2    -0.813703327581E+03   -0.37218E-03   -0.38481E-03   917   0.643E-02    0.295E-02
RMM:   3    -0.813703363661E+03   -0.36079E-04   -0.38153E-04  1037   0.172E-02    0.345E-02
RMM:   4    -0.813703365270E+03   -0.16088E-05   -0.18589E-05   698   0.380E-03    0.316E-02
RMM:   5    -0.813703366379E+03   -0.11094E-05   -0.15849E-06   459   0.144E-03    0.265E-02
RMM:   6    -0.813703369516E+03   -0.31371E-05   -0.15470E-06   452   0.134E-03    0.174E-02
RMM:   7    -0.813703374830E+03   -0.53141E-05   -0.16926E-06   456   0.140E-03    0.571E-03
RMM:   8    -0.813703379506E+03   -0.46759E-05   -0.11332E-06   452   0.118E-03    0.300E-03
RMM:   9    -0.813703380797E+03   -0.12910E-05   -0.41351E-07   429   0.753E-04    0.263E-03
RMM:  10    -0.813703381584E+03   -0.78643E-06   -0.15934E-07   318   0.490E-04
   21 T=   323. E= -.83929055E+03 F= -.84375385E+03 E0= -.84375385E+03  EK= 0.44633E+01 SP= 0.00E+00 SK= 0.00E+00
       N       E                     dE             d eps       ncg     rms          rms(c)
DAV:   1    -0.813675053711E+03    0.28327E-01   -0.56709E-03  1440   0.596E-01    0.829E-02
RMM:   2    -0.813675448921E+03   -0.39521E-03   -0.41988E-03   916   0.678E-02    0.154E-02
RMM:   3    -0.813675482477E+03   -0.33557E-04   -0.40744E-04  1000   0.186E-02    0.166E-02
RMM:   4    -0.813675484794E+03   -0.23164E-05   -0.44510E-05   997   0.591E-03    0.129E-02
RMM:   5    -0.813675485235E+03   -0.44159E-06   -0.32339E-06   511   0.172E-03
   22 T=   321. E= -.83929054E+03 F= -.84372874E+03 E0= -.84372874E+03  EK= 0.44382E+01 SP= 0.00E+00 SK= 0.00E+00
       N       E                     dE             d eps       ncg     rms          rms(c)
DAV:   1    -0.813645012433E+03    0.30472E-01   -0.62153E-03  1444   0.593E-01    0.496E-02
RMM:   2    -0.813645373779E+03   -0.36135E-03   -0.37452E-03   905   0.668E-02    0.231E-02
RMM:   3    -0.813645409977E+03   -0.36199E-04   -0.37865E-04  1024   0.174E-02    0.291E-02
RMM:   4    -0.813645412365E+03   -0.23872E-05   -0.24490E-05   768   0.432E-03    0.261E-02
RMM:   5    -0.813645413574E+03   -0.12090E-05   -0.16123E-06   464   0.146E-03    0.219E-02
RMM:   6    -0.813645416163E+03   -0.25892E-05   -0.97649E-07   452   0.110E-03    0.152E-02
RMM:   7    -0.813645418934E+03   -0.27717E-05   -0.62267E-07   452   0.896E-04    0.100E-02
RMM:   8    -0.813645424865E+03   -0.59310E-05   -0.65070E-07   452   0.926E-04    0.100E-03
RMM:   9    -0.813645426919E+03   -0.20536E-05   -0.35967E-07   441   0.688E-04    0.169E-03
RMM:  10    -0.813645428068E+03   -0.11494E-05   -0.14543E-07   305   0.466E-04    0.127E-03
RMM:  11    -0.813645430077E+03   -0.20084E-05   -0.10591E-07   286   0.440E-04    0.400E-04
RMM:  12    -0.813645430382E+03   -0.30492E-06   -0.27363E-08   164   0.350E-04
   23 T=   319. E= -.83929052E+03 F= -.84370158E+03 E0= -.84370158E+03  EK= 0.44111E+01 SP= 0.00E+00 SK= 0.00E+00
       N       E                     dE             d eps       ncg     rms          rms(c)
DAV:   1    -0.813613334801E+03    0.32095E-01   -0.50561E-03  1472   0.591E-01    0.702E-02
RMM:   2    -0.813613695966E+03   -0.36117E-03   -0.38194E-03   918   0.658E-02    0.169E-02
RMM:   3    -0.813613728747E+03   -0.32781E-04   -0.38381E-04  1013   0.177E-02    0.193E-02
RMM:   4    -0.813613731308E+03   -0.25613E-05   -0.35237E-05   950   0.527E-03    0.159E-02
RMM:   5    -0.813613732129E+03   -0.82106E-06   -0.26780E-06   496   0.167E-03
   24 T=   317. E= -.83929050E+03 F= -.84367286E+03 E0= -.84367286E+03  EK= 0.43824E+01 SP= 0.00E+00 SK= 0.00E+00
       N       E                     dE             d eps       ncg     rms          rms(c)
DAV:   1    -0.813580549165E+03    0.33182E-01   -0.48759E-03  1456   0.588E-01    0.356E-02
RMM:   2    -0.813580881022E+03   -0.33186E-03   -0.34092E-03   915   0.628E-02    0.255E-02
RMM:   3    -0.813580916183E+03   -0.35161E-04   -0.35626E-04  1029   0.166E-02    0.304E-02
RMM:   4    -0.813580918201E+03   -0.20180E-05   -0.17970E-05   693   0.381E-03    0.276E-02
RMM:   5    -0.813580919965E+03   -0.17635E-05   -0.17017E-06   467   0.148E-03    0.231E-02
RMM:   6    -0.813580924748E+03   -0.47829E-05   -0.13464E-06   452   0.127E-03    0.142E-02
RMM:   7    -0.813580930491E+03   -0.57436E-05   -0.10653E-06   452   0.115E-03    0.579E-03
RMM:   8    -0.813580936311E+03   -0.58200E-05   -0.78005E-07   454   0.975E-04    0.149E-03
RMM:   9    -0.813580938862E+03   -0.25503E-05   -0.33588E-07   406   0.671E-04    0.227E-03
RMM:  10    -0.813580940223E+03   -0.13614E-05   -0.13295E-07   289   0.462E-04    0.123E-03
RMM:  11    -0.813580942751E+03   -0.25283E-05   -0.22686E-07   433   0.549E-04    0.110E-03
RMM:  12    -0.813580943269E+03   -0.51815E-06   -0.34640E-08   177   0.318E-04
   25 T=   315. E= -.83929048E+03 F= -.84364310E+03 E0= -.84364310E+03  EK= 0.43526E+01 SP= 0.00E+00 SK= 0.00E+00
       N       E                     dE             d eps       ncg     rms          rms(c)
DAV:   1    -0.813547149552E+03    0.33793E-01   -0.48784E-03  1440   0.585E-01    0.784E-02
RMM:   2    -0.813547532435E+03   -0.38288E-03   -0.40309E-03   922   0.658E-02    0.141E-02
RMM:   3    -0.813547568060E+03   -0.35625E-04   -0.39033E-04  1007   0.181E-02    0.158E-02
RMM:   4    -0.813547571248E+03   -0.31880E-05   -0.39999E-05   990   0.556E-03    0.120E-02
RMM:   5    -0.813547573089E+03   -0.18411E-05   -0.27533E-06   502   0.158E-03    0.825E-03
RMM:   6    -0.813547575993E+03   -0.29038E-05   -0.12147E-06   452   0.121E-03    0.433E-03
RMM:   7    -0.813547578536E+03   -0.25426E-05   -0.73931E-07   452   0.954E-04    0.199E-03
RMM:   8    -0.813547580558E+03   -0.20221E-05   -0.37454E-07   403   0.694E-04    0.955E-04
RMM:   9    -0.813547582319E+03   -0.17613E-05   -0.20546E-07   346   0.527E-04    0.319E-04
RMM:  10    -0.813547583604E+03   -0.12847E-05   -0.10885E-07   256   0.439E-04    0.186E-04
RMM:  11    -0.813547584582E+03   -0.97806E-06   -0.75024E-08   244   0.408E-04
   26 T=   313. E= -.83929046E+03 F= -.84361281E+03 E0= -.84361281E+03  EK= 0.43224E+01 SP= 0.00E+00 SK= 0.00E+00
       N       E                     dE             d eps       ncg     rms          rms(c)
DAV:   1    -0.813513766146E+03    0.33817E-01   -0.57504E-03  1424   0.582E-01    0.551E-02
RMM:   2    -0.813514156974E+03   -0.39083E-03   -0.41011E-03   907   0.669E-02    0.197E-02
RMM:   3    -0.813514192497E+03   -0.35523E-04   -0.39957E-04  1028   0.178E-02    0.246E-02
RMM:   4    -0.813514194000E+03   -0.15032E-05   -0.23710E-05   803   0.431E-03    0.210E-02
RMM:   5    -0.813514194046E+03   -0.45824E-07   -0.15793E-06   462   0.142E-03
   27 T=   310. E= -.83929042E+03 F= -.84358252E+03 E0= -.84358252E+03  EK= 0.42921E+01 SP= 0.00E+00 SK= 0.00E+00
       N       E                     dE             d eps       ncg     rms          rms(c)
DAV:   1    -0.813480946765E+03    0.33247E-01   -0.41971E-03  1440   0.580E-01    0.174E-02
RMM:   2    -0.813481269991E+03   -0.32323E-03   -0.33783E-03   913   0.609E-02    0.350E-02
RMM:   3    -0.813481301296E+03   -0.31305E-04   -0.34699E-04  1033   0.164E-02    0.418E-02
RMM:   4    -0.813481301958E+03   -0.66147E-06   -0.14824E-05   642   0.354E-03    0.402E-02
RMM:   5    -0.813481301952E+03    0.60827E-08   -0.13715E-06   457   0.133E-03
   28 T=   308. E= -.83929040E+03 F= -.84355272E+03 E0= -.84355272E+03  EK= 0.42623E+01 SP= 0.00E+00 SK= 0.00E+00
       N       E                     dE             d eps       ncg     rms          rms(c)
DAV:   1    -0.813449062275E+03    0.32240E-01   -0.39805E-03  1396   0.576E-01    0.118E-02
RMM:   2    -0.813449366839E+03   -0.30456E-03   -0.31872E-03   914   0.586E-02    0.400E-02
RMM:   3    -0.813449396163E+03   -0.29324E-04   -0.31979E-04  1030   0.157E-02    0.482E-02
RMM:   4    -0.813449396869E+03   -0.70639E-06   -0.15544E-05   649   0.350E-03    0.473E-02
RMM:   5    -0.813449396276E+03    0.59317E-06   -0.14227E-06   453   0.135E-03
   29 T=   306. E= -.83929036E+03 F= -.84352388E+03 E0= -.84352388E+03  EK= 0.42335E+01 SP= 0.00E+00 SK= 0.00E+00
       N       E                     dE             d eps       ncg     rms          rms(c)
DAV:   1    -0.813418616844E+03    0.30780E-01   -0.43978E-03  1440   0.575E-01    0.576E-02
RMM:   2    -0.813418927027E+03   -0.31018E-03   -0.32605E-03   916   0.598E-02    0.744E-02
RMM:   3    -0.813418979343E+03   -0.52316E-04   -0.40580E-04  1039   0.176E-02    0.112E-01
RMM:   4    -0.813418970781E+03    0.85625E-05   -0.94590E-05   822   0.920E-03    0.386E-02
RMM:   5    -0.813418953093E+03    0.17688E-04   -0.53676E-05   884   0.633E-03    0.183E-02
RMM:   6    -0.813418953862E+03   -0.76878E-06   -0.82175E-06   689   0.249E-03
   30 T=   304. E= -.83929034E+03 F= -.84349646E+03 E0= -.84349646E+03  EK= 0.42061E+01 SP= 0.00E+00 SK= 0.00E+00
       N       E                     dE             d eps       ncg     rms          rms(c)
DAV:   1    -0.813390074659E+03    0.28878E-01   -0.49293E-03  1456   0.571E-01    0.193E-01
RMM:   2    -0.813390362841E+03   -0.28818E-03   -0.34496E-03   920   0.624E-02    0.689E-02
RMM:   3    -0.813390402610E+03   -0.39769E-04   -0.42470E-04  1006   0.191E-02    0.289E-02
RMM:   4    -0.813390395435E+03    0.71758E-05   -0.78133E-05   989   0.809E-03    0.110E-02
RMM:   5    -0.813390396191E+03   -0.75600E-06   -0.85663E-06   694   0.256E-03
   31 T=   302. E= -.83929032E+03 F= -.84347087E+03 E0= -.84347087E+03  EK= 0.41806E+01 SP= 0.00E+00 SK= 0.00E+00
       N       E                     dE             d eps       ncg     rms          rms(c)
DAV:   1    -0.813363761137E+03    0.26634E-01   -0.50681E-03  1424   0.570E-01    0.210E-02
RMM:   2    -0.813364090732E+03   -0.32960E-03   -0.34407E-03   910   0.617E-02    0.421E-02
RMM:   3    -0.813364121778E+03   -0.31046E-04   -0.35541E-04  1020   0.167E-02    0.484E-02
RMM:   4    -0.813364122879E+03   -0.11012E-05   -0.19616E-05   695   0.389E-03    0.474E-02
RMM:   5    -0.813364121532E+03    0.13477E-05   -0.25214E-06   465   0.176E-03    0.410E-02
RMM:   6    -0.813364122915E+03   -0.13836E-05   -0.14917E-05   855   0.327E-03    0.184E-02
RMM:   7    -0.813364129383E+03   -0.64679E-05   -0.15438E-05   896   0.347E-03    0.212E-02
RMM:   8    -0.813364128633E+03    0.75054E-06   -0.19722E-06   463   0.160E-03
   32 T=   301. E= -.83929030E+03 F= -.84344749E+03 E0= -.84344749E+03  EK= 0.41572E+01 SP= 0.00E+00 SK= 0.00E+00
       N       E                     dE             d eps       ncg     rms          rms(c)
DAV:   1    -0.813340214900E+03    0.23914E-01   -0.33398E-03  1472   0.568E-01    0.801E-02
RMM:   2    -0.813340487576E+03   -0.27268E-03   -0.30474E-03   931   0.574E-02    0.214E-02
RMM:   3    -0.813340508620E+03   -0.21044E-04   -0.30955E-04   997   0.166E-02    0.175E-02
RMM:   4    -0.813340507357E+03    0.12632E-05   -0.51176E-05  1001   0.640E-03    0.880E-03
RMM:   5    -0.813340507548E+03   -0.19156E-06   -0.44875E-06   548   0.195E-03
   33 T=   299. E= -.83929028E+03 F= -.84342665E+03 E0= -.84342665E+03  EK= 0.41364E+01 SP= 0.00E+00 SK= 0.00E+00
       N       E                     dE             d eps       ncg     rms          rms(c)
DAV:   1    -0.813319519267E+03    0.20988E-01   -0.35309E-03  1416   0.565E-01    0.204E-02
RMM:   2    -0.813319804660E+03   -0.28539E-03   -0.29953E-03   913   0.567E-02    0.306E-02
RMM:   3    -0.813319833476E+03   -0.28816E-04   -0.31510E-04  1038   0.155E-02    0.352E-02
RMM:   4    -0.813319834413E+03   -0.93713E-06   -0.13715E-05   668   0.340E-03    0.391E-02
RMM:   5    -0.813319834464E+03   -0.51630E-07   -0.11662E-06   453   0.127E-03
   34 T=   298. E= -.83929025E+03 F= -.84340865E+03 E0= -.84340865E+03  EK= 0.41184E+01 SP= 0.00E+00 SK= 0.00E+00
       N       E                     dE             d eps       ncg     rms          rms(c)
DAV:   1    -0.813302045213E+03    0.17789E-01   -0.35375E-03  1416   0.563E-01    0.555E-02
RMM:   2    -0.813302317393E+03   -0.27218E-03   -0.28858E-03   918   0.561E-02    0.681E-02
RMM:   3    -0.813302346474E+03   -0.29081E-04   -0.31643E-04  1033   0.155E-02    0.824E-02
RMM:   4    -0.813302377100E+03   -0.30626E-04   -0.67437E-05   912   0.741E-03    0.644E-02
RMM:   5    -0.813302365975E+03    0.11126E-04   -0.17919E-05   754   0.410E-03    0.564E-02
RMM:   6    -0.813302363545E+03    0.24295E-05   -0.70509E-06   660   0.246E-03    0.491E-02
RMM:   7    -0.813302364096E+03   -0.55044E-06   -0.11767E-06   452   0.129E-03
   35 T=   297. E= -.83929024E+03 F= -.84339372E+03 E0= -.84339372E+03  EK= 0.41035E+01 SP= 0.00E+00 SK= 0.00E+00
       N       E                     dE             d eps       ncg     rms          rms(c)
DAV:   1    -0.813288004282E+03    0.14359E-01   -0.48399E-03  1448   0.563E-01    0.839E-02
RMM:   2    -0.813288261211E+03   -0.25693E-03   -0.36561E-03   903   0.645E-02    0.350E-02
RMM:   3    -0.813288273989E+03   -0.12778E-04   -0.37333E-04   980   0.189E-02    0.209E-02
RMM:   4    -0.813288275701E+03   -0.17124E-05   -0.67812E-05  1027   0.737E-03    0.132E-02
RMM:   5    -0.813288275659E+03    0.42128E-07   -0.77384E-06   672   0.252E-03
   36 T=   296. E= -.83929021E+03 F= -.84338203E+03 E0= -.84338203E+03  EK= 0.40918E+01 SP= 0.00E+00 SK= 0.00E+00
       N       E                     dE             d eps       ncg     rms          rms(c)
DAV:   1    -0.813277354271E+03    0.10921E-01   -0.54618E-03  1440   0.562E-01    0.127E-01
RMM:   2    -0.813277687062E+03   -0.33279E-03   -0.48169E-03   922   0.710E-02    0.422E-02
RMM:   3    -0.813277698450E+03   -0.11388E-04   -0.44351E-04   961   0.214E-02    0.196E-02
RMM:   4    -0.813277701786E+03   -0.33361E-05   -0.90896E-05  1038   0.867E-03    0.123E-02
RMM:   5    -0.813277701884E+03   -0.98313E-07   -0.10611E-05   730   0.291E-03    0.547E-03
RMM:   6    -0.813277704277E+03   -0.23922E-05   -0.20394E-06   466   0.156E-03    0.266E-03
RMM:   7    -0.813277706081E+03   -0.18046E-05   -0.89219E-07   452   0.114E-03    0.139E-03
RMM:   8    -0.813277707476E+03   -0.13950E-05   -0.41940E-07   438   0.769E-04    0.901E-04
RMM:   9    -0.813277708657E+03   -0.11805E-05   -0.22630E-07   357   0.546E-04    0.484E-04
RMM:  10    -0.813277709487E+03   -0.82998E-06   -0.12337E-07   253   0.441E-04
   37 T=   295. E= -.83929020E+03 F= -.84337371E+03 E0= -.84337371E+03  EK= 0.40835E+01 SP= 0.00E+00 SK= 0.00E+00
       N       E                     dE             d eps       ncg     rms          rms(c)
DAV:   1    -0.813270276932E+03    0.74317E-02   -0.60056E-03  1424   0.563E-01    0.373E-02
RMM:   2    -0.813270670763E+03   -0.39383E-03   -0.41233E-03   898   0.678E-02    0.308E-02
RMM:   3    -0.813270705468E+03   -0.34705E-04   -0.39892E-04  1007   0.182E-02    0.335E-02
RMM:   4    -0.813270707800E+03   -0.23326E-05   -0.29493E-05   818   0.475E-03    0.318E-02
RMM:   5    -0.813270708058E+03   -0.25766E-06   -0.25137E-06   476   0.177E-03
   38 T=   295. E= -.83929016E+03 F= -.84336878E+03 E0= -.84336878E+03  EK= 0.40786E+01 SP= 0.00E+00 SK= 0.00E+00
       N       E                     dE             d eps       ncg     rms          rms(c)
DAV:   1    -0.813266880995E+03    0.38268E-02   -0.60577E-03  1416   0.563E-01    0.491E-02
RMM:   2    -0.813267258817E+03   -0.37782E-03   -0.39246E-03   901   0.664E-02    0.235E-02
RMM:   3    -0.813267294498E+03   -0.35681E-04   -0.38899E-04  1016   0.178E-02    0.259E-02
RMM:   4    -0.813267297396E+03   -0.28986E-05   -0.29733E-05   893   0.478E-03    0.228E-02
RMM:   5    -0.813267300097E+03   -0.27011E-05   -0.26717E-06   484   0.174E-03    0.136E-02
RMM:   6    -0.813267304923E+03   -0.48259E-05   -0.23681E-06   463   0.163E-03    0.286E-03
RMM:   7    -0.813267307056E+03   -0.21321E-05   -0.94309E-07   452   0.113E-03    0.384E-03
RMM:   8    -0.813267308216E+03   -0.11608E-05   -0.37446E-07   425   0.729E-04    0.254E-03
RMM:   9    -0.813267308952E+03   -0.73576E-06   -0.22285E-07   386   0.552E-04
   39 T=   295. E= -.83929014E+03 F= -.84336728E+03 E0= -.84336728E+03  EK= 0.40771E+01 SP= 0.00E+00 SK= 0.00E+00
       N       E                     dE             d eps       ncg     rms          rms(c)
DAV:   1    -0.813267004909E+03    0.30331E-03   -0.57636E-03  1456   0.564E-01    0.685E-02
RMM:   2    -0.813267395946E+03   -0.39104E-03   -0.40933E-03   912   0.683E-02    0.163E-02
RMM:   3    -0.813267428667E+03   -0.32721E-04   -0.38460E-04  1000   0.180E-02    0.189E-02
RMM:   4    -0.813267431413E+03   -0.27462E-05   -0.38590E-05   952   0.550E-03    0.156E-02
RMM:   5    -0.813267432028E+03   -0.61447E-06   -0.34272E-06   505   0.191E-03
   40 T=   295. E= -.83929012E+03 F= -.84336912E+03 E0= -.84336912E+03  EK= 0.40790E+01 SP= 0.00E+00 SK= 0.00E+00
       N       E                     dE             d eps       ncg     rms          rms(c)
DAV:   1    -0.813270561842E+03   -0.31304E-02   -0.59312E-03  1448   0.564E-01    0.529E-02
RMM:   2    -0.813270932163E+03   -0.37032E-03   -0.38293E-03   907   0.671E-02    0.196E-02
RMM:   3    -0.813270968242E+03   -0.36079E-04   -0.37533E-04  1019   0.175E-02    0.232E-02
RMM:   4    -0.813270971276E+03   -0.30342E-05   -0.29604E-05   853   0.474E-03    0.207E-02
RMM:   5    -0.813270973332E+03   -0.20556E-05   -0.20681E-06   480   0.156E-03    0.159E-02
RMM:   6    -0.813270976066E+03   -0.27341E-05   -0.85563E-07   452   0.105E-03    0.109E-02
RMM:   7    -0.813270980180E+03   -0.41142E-05   -0.63741E-07   452   0.906E-04    0.487E-03
RMM:   8    -0.813270986291E+03   -0.61111E-05   -0.45136E-07   443   0.779E-04    0.142E-03
RMM:   9    -0.813270988160E+03   -0.18692E-05   -0.22328E-07   368   0.540E-04    0.189E-03
RMM:  10    -0.813270989550E+03   -0.13899E-05   -0.93752E-08   231   0.410E-04    0.954E-04
RMM:  11    -0.813270992820E+03   -0.32703E-05   -0.18284E-07   404   0.520E-04    0.788E-04
RMM:  12    -0.813270993159E+03   -0.33906E-06   -0.29198E-08   156   0.317E-04
   41 T=   295. E= -.83929011E+03 F= -.84337420E+03 E0= -.84337420E+03  EK= 0.40841E+01 SP= 0.00E+00 SK= 0.00E+00
       N       E                     dE             d eps       ncg     rms          rms(c)
DAV:   1    -0.813277399434E+03   -0.64066E-02   -0.43291E-03  1440   0.565E-01    0.573E-02
RMM:   2    -0.813277752697E+03   -0.35326E-03   -0.37057E-03   925   0.622E-02    0.173E-02
RMM:   3    -0.813277783427E+03   -0.30730E-04   -0.35257E-04  1012   0.171E-02    0.180E-02
RMM:   4    -0.813277785856E+03   -0.24288E-05   -0.35795E-05   936   0.521E-03    0.146E-02
RMM:   5    -0.813277787348E+03   -0.14918E-05   -0.27696E-06   490   0.169E-03    0.953E-03
RMM:   6    -0.813277789759E+03   -0.24115E-05   -0.16241E-06   452   0.142E-03    0.434E-03
RMM:   7    -0.813277791395E+03   -0.16354E-05   -0.79326E-07   452   0.104E-03    0.233E-03
RMM:   8    -0.813277793117E+03   -0.17224E-05   -0.39087E-07   422   0.723E-04    0.117E-03
RMM:   9    -0.813277795226E+03   -0.21087E-05   -0.22294E-07   372   0.552E-04    0.295E-04
RMM:  10    -0.813277796279E+03   -0.10531E-05   -0.11734E-07   272   0.443E-04    0.281E-04
RMM:  11    -0.813277797292E+03   -0.10128E-05   -0.68323E-08   229   0.403E-04    0.265E-04
RMM:  12    -0.813277798609E+03   -0.13174E-05   -0.59237E-08   245   0.400E-04    0.115E-04
RMM:  13    -0.813277799192E+03   -0.58301E-06   -0.41088E-08   221   0.371E-04
   42 T=   296. E= -.83929010E+03 F= -.84338234E+03 E0= -.84338234E+03  EK= 0.40922E+01 SP= 0.00E+00 SK= 0.00E+00
       N       E                     dE             d eps       ncg     rms          rms(c)
DAV:   1    -0.813287249429E+03   -0.94508E-02   -0.51502E-03  1440   0.566E-01    0.485E-02
RMM:   2    -0.813287582404E+03   -0.33298E-03   -0.35101E-03   911   0.628E-02    0.170E-02
RMM:   3    -0.813287612597E+03   -0.30193E-04   -0.35141E-04  1024   0.169E-02    0.198E-02
RMM:   4    -0.813287614127E+03   -0.15296E-05   -0.27078E-05   853   0.453E-03    0.169E-02
RMM:   5    -0.813287614174E+03   -0.47672E-07   -0.16454E-06   464   0.137E-03
   43 T=   297. E= -.83929010E+03 F= -.84339330E+03 E0= -.84339330E+03  EK= 0.41032E+01 SP= 0.00E+00 SK= 0.00E+00
       N       E                     dE             d eps       ncg     rms          rms(c)
DAV:   1    -0.813299747146E+03   -0.12133E-01   -0.72281E-03  1456   0.570E-01    0.273E-02
RMM:   2    -0.813300107574E+03   -0.36043E-03   -0.37450E-03   885   0.679E-02    0.311E-02
RMM:   3    -0.813300143544E+03   -0.35969E-04   -0.38907E-04  1019   0.175E-02    0.376E-02
RMM:   4    -0.813300144816E+03   -0.12716E-05   -0.23094E-05   711   0.419E-03    0.349E-02
RMM:   5    -0.813300144730E+03    0.85885E-07   -0.17410E-06   469   0.148E-03
   44 T=   298. E= -.83929009E+03 F= -.84340677E+03 E0= -.84340677E+03  EK= 0.41167E+01 SP= 0.00E+00 SK= 0.00E+00
       N       E                     dE             d eps       ncg     rms          rms(c)
DAV:   1    -0.813314577626E+03   -0.14433E-01   -0.87889E-03  1412   0.573E-01    0.312E-02
RMM:   2    -0.813314995251E+03   -0.41763E-03   -0.43320E-03   878   0.719E-02    0.343E-02
RMM:   3    -0.813315034612E+03   -0.39361E-04   -0.41989E-04  1002   0.183E-02    0.405E-02
RMM:   4    -0.813315036537E+03   -0.19255E-05   -0.29736E-05   761   0.475E-03    0.363E-02
RMM:   5    -0.813315036200E+03    0.33747E-06   -0.29660E-06   485   0.193E-03
   45 T=   299. E= -.83929007E+03 F= -.84342240E+03 E0= -.84342240E+03  EK= 0.41323E+01 SP= 0.00E+00 SK= 0.00E+00
       N       E                     dE             d eps       ncg     rms          rms(c)
DAV:   1    -0.813331483985E+03   -0.16447E-01   -0.51902E-03  1432   0.576E-01    0.585E-02
RMM:   2    -0.813331854099E+03   -0.37011E-03   -0.39411E-03   930   0.647E-02    0.175E-02
RMM:   3    -0.813331886230E+03   -0.32131E-04   -0.38744E-04  1017   0.178E-02    0.177E-02
RMM:   4    -0.813331887853E+03   -0.16228E-05   -0.38196E-05   945   0.534E-03    0.142E-02
RMM:   5    -0.813331888056E+03   -0.20250E-06   -0.29240E-06   502   0.164E-03
   46 T=   300. E= -.83929006E+03 F= -.84343979E+03 E0= -.84343979E+03  EK= 0.41497E+01 SP= 0.00E+00 SK= 0.00E+00
       N       E                     dE             d eps       ncg     rms          rms(c)
DAV:   1    -0.813349847277E+03   -0.17959E-01   -0.52300E-03  1416   0.578E-01    0.709E-02
RMM:   2    -0.813350205036E+03   -0.35776E-03   -0.37636E-03   920   0.639E-02    0.127E-02
RMM:   3    -0.813350236259E+03   -0.31223E-04   -0.36087E-04  1005   0.174E-02    0.146E-02
RMM:   4    -0.813350237874E+03   -0.16149E-05   -0.38144E-05   974   0.539E-03    0.109E-02
RMM:   5    -0.813350238307E+03   -0.43341E-06   -0.25952E-06   495   0.154E-03
   47 T=   301. E= -.83929005E+03 F= -.84345849E+03 E0= -.84345849E+03  EK= 0.41684E+01 SP= 0.00E+00 SK= 0.00E+00
       N       E                     dE             d eps       ncg     rms          rms(c)
DAV:   1    -0.813369202653E+03   -0.18965E-01   -0.64791E-03  1448   0.581E-01    0.511E-02
RMM:   2    -0.813369556098E+03   -0.35345E-03   -0.37247E-03   911   0.669E-02    0.205E-02
RMM:   3    -0.813369586953E+03   -0.30855E-04   -0.36179E-04  1007   0.172E-02    0.245E-02
RMM:   4    -0.813369588933E+03   -0.19795E-05   -0.28842E-05   850   0.468E-03    0.222E-02
RMM:   5    -0.813369588993E+03   -0.60136E-07   -0.17348E-06   472   0.144E-03
   48 T=   303. E= -.83929005E+03 F= -.84347799E+03 E0= -.84347799E+03  EK= 0.41879E+01 SP= 0.00E+00 SK= 0.00E+00
       N       E                     dE             d eps       ncg     rms          rms(c)
DAV:   1    -0.813389000036E+03   -0.19411E-01   -0.59312E-03  1440   0.586E-01    0.259E-02
RMM:   2    -0.813389363901E+03   -0.36387E-03   -0.37922E-03   913   0.657E-02    0.337E-02
RMM:   3    -0.813389396719E+03   -0.32818E-04   -0.37054E-04  1023   0.171E-02    0.383E-02
RMM:   4    -0.813389398211E+03   -0.14924E-05   -0.21883E-05   709   0.412E-03    0.359E-02
RMM:   5    -0.813389397669E+03    0.54245E-06   -0.27645E-06   475   0.185E-03
   49 T=   304. E= -.83929005E+03 F= -.84349776E+03 E0= -.84349776E+03  EK= 0.42077E+01 SP= 0.00E+00 SK= 0.00E+00
       N       E                     dE             d eps       ncg     rms          rms(c)
DAV:   1    -0.813408665719E+03   -0.19268E-01   -0.58947E-03  1424   0.589E-01    0.620E-02
RMM:   2    -0.813409045832E+03   -0.38011E-03   -0.40409E-03   912   0.673E-02    0.179E-02
RMM:   3    -0.813409080786E+03   -0.34954E-04   -0.39464E-04  1010   0.180E-02    0.213E-02
RMM:   4    -0.813409083272E+03   -0.24863E-05   -0.35928E-05   930   0.529E-03    0.179E-02
RMM:   5    -0.813409083784E+03   -0.51208E-06   -0.30361E-06   501   0.179E-03
   50 T=   306. E= -.83929005E+03 F= -.84351722E+03 E0= -.84351722E+03  EK= 0.42272E+01 SP= 0.00E+00 SK= 0.00E+00
       N       E                     dE             d eps       ncg     rms          rms(c)
DAV:   1    -0.813427586907E+03   -0.18504E-01   -0.71936E-03  1416   0.594E-01    0.704E-02
RMM:   2    -0.813427999971E+03   -0.41306E-03   -0.43370E-03   900   0.698E-02    0.171E-02
RMM:   3    -0.813428035045E+03   -0.35075E-04   -0.41207E-04   982   0.188E-02    0.192E-02
RMM:   4    -0.813428037602E+03   -0.25565E-05   -0.51806E-05  1013   0.628E-03    0.162E-02
RMM:   5    -0.813428037837E+03   -0.23546E-06   -0.27724E-06   500   0.156E-03
   51 T=   307. E= -.83929005E+03 F= -.84353578E+03 E0= -.84353578E+03  EK= 0.42457E+01 SP= 0.00E+00 SK= 0.00E+00
       N       E                     dE             d eps       ncg     rms          rms(c)
DAV:   1    -0.813445163055E+03   -0.17125E-01   -0.85921E-03  1408   0.598E-01    0.527E-02
RMM:   2    -0.813445590661E+03   -0.42761E-03   -0.44476E-03   892   0.719E-02    0.223E-02
RMM:   3    -0.813445631299E+03   -0.40639E-04   -0.45171E-04  1009   0.191E-02    0.277E-02
RMM:   4    -0.813445633625E+03   -0.23256E-05   -0.32773E-05   834   0.495E-03    0.249E-02
RMM:   5    -0.813445633705E+03   -0.79948E-07   -0.16664E-06   467   0.143E-03
   52 T=   308. E= -.83929005E+03 F= -.84355280E+03 E0= -.84355280E+03  EK= 0.42627E+01 SP= 0.00E+00 SK= 0.00E+00
       N       E                     dE             d eps       ncg     rms          rms(c)
DAV:   1    -0.813460740533E+03   -0.15107E-01   -0.71874E-03  1440   0.602E-01    0.368E-02
RMM:   2    -0.813461178962E+03   -0.43843E-03   -0.45579E-03   912   0.717E-02    0.344E-02
RMM:   3    -0.813461218173E+03   -0.39212E-04   -0.45162E-04  1017   0.190E-02    0.389E-02
RMM:   4    -0.813461220384E+03   -0.22107E-05   -0.31304E-05   800   0.480E-03    0.370E-02
RMM:   5    -0.813461219947E+03    0.43712E-06   -0.24608E-06   472   0.175E-03
   53 T=   309. E= -.83929005E+03 F= -.84356765E+03 E0= -.84356765E+03  EK= 0.42776E+01 SP= 0.00E+00 SK= 0.00E+00
       N       E                     dE             d eps       ncg     rms          rms(c)
DAV:   1    -0.813473749089E+03   -0.12529E-01   -0.60916E-03  1432   0.605E-01    0.449E-02
RMM:   2    -0.813474127216E+03   -0.37813E-03   -0.39610E-03   916   0.675E-02    0.247E-02
RMM:   3    -0.813474161757E+03   -0.34542E-04   -0.38610E-04  1006   0.176E-02    0.282E-02
RMM:   4    -0.813474164562E+03   -0.28050E-05   -0.31690E-05   871   0.490E-03    0.251E-02
RMM:   5    -0.813474165511E+03   -0.94895E-06   -0.24410E-06   473   0.171E-03
   54 T=   310. E= -.83929005E+03 F= -.84357970E+03 E0= -.84357970E+03  EK= 0.42897E+01 SP= 0.00E+00 SK= 0.00E+00
       N       E                     dE             d eps       ncg     rms          rms(c)
DAV:   1    -0.813483419486E+03   -0.92549E-02   -0.70159E-03  1440   0.607E-01    0.835E-02
RMM:   2    -0.813483807848E+03   -0.38836E-03   -0.41410E-03   914   0.703E-02    0.134E-02
RMM:   3    -0.813483841518E+03   -0.33670E-04   -0.39101E-04   998   0.183E-02    0.160E-02
RMM:   4    -0.813483843460E+03   -0.19419E-05   -0.45348E-05   997   0.603E-03    0.125E-02
RMM:   5    -0.813483843893E+03   -0.43328E-06   -0.28632E-06   497   0.164E-03
   55 T=   311. E= -.83929005E+03 F= -.84358834E+03 E0= -.84358834E+03  EK= 0.42983E+01 SP= 0.00E+00 SK= 0.00E+00
       N       E                     dE             d eps       ncg     rms          rms(c)
DAV:   1    -0.813489180555E+03   -0.53371E-02   -0.84954E-03  1432   0.611E-01    0.549E-02
RMM:   2    -0.813489615588E+03   -0.43503E-03   -0.45205E-03   900   0.737E-02    0.237E-02
RMM:   3    -0.813489653647E+03   -0.38060E-04   -0.43486E-04  1002   0.190E-02    0.282E-02
RMM:   4    -0.813489656240E+03   -0.25924E-05   -0.35563E-05   847   0.523E-03    0.257E-02
RMM:   5    -0.813489656306E+03   -0.66400E-07   -0.18748E-06   478   0.151E-03
   56 T=   311. E= -.83929005E+03 F= -.84359297E+03 E0= -.84359297E+03  EK= 0.43029E+01 SP= 0.00E+00 SK= 0.00E+00
       N       E                     dE             d eps       ncg     rms          rms(c)
DAV:   1    -0.813490526251E+03   -0.87001E-03   -0.91623E-03  1440   0.614E-01    0.423E-02
RMM:   2    -0.813491020526E+03   -0.49428E-03   -0.51038E-03   902   0.772E-02    0.346E-02
RMM:   3    -0.813491065069E+03   -0.44543E-04   -0.49053E-04  1007   0.200E-02    0.392E-02
RMM:   4    -0.813491067974E+03   -0.29050E-05   -0.36006E-05   812   0.525E-03    0.370E-02
RMM:   5    -0.813491068312E+03   -0.33734E-06   -0.25242E-06   482   0.175E-03
   57 T=   311. E= -.83929003E+03 F= -.84359307E+03 E0= -.84359307E+03  EK= 0.43030E+01 SP= 0.00E+00 SK= 0.00E+00
       N       E                     dE             d eps       ncg     rms          rms(c)
DAV:   1    -0.813487105360E+03    0.39626E-02   -0.77326E-03  1432   0.616E-01    0.488E-02
RMM:   2    -0.813487588963E+03   -0.48360E-03   -0.50221E-03   917   0.749E-02    0.291E-02
RMM:   3    -0.813487632918E+03   -0.43955E-04   -0.47913E-04  1003   0.197E-02    0.330E-02
RMM:   4    -0.813487636620E+03   -0.37025E-05   -0.39844E-05   883   0.548E-03    0.295E-02
RMM:   5    -0.813487638158E+03   -0.15375E-05   -0.32048E-06   497   0.191E-03    0.194E-02
RMM:   6    -0.813487640846E+03   -0.26885E-05   -0.20503E-06   453   0.156E-03    0.101E-02
RMM:   7    -0.813487644372E+03   -0.35258E-05   -0.12348E-06   452   0.125E-03    0.281E-03
RMM:   8    -0.813487647693E+03   -0.33209E-05   -0.61566E-07   450   0.921E-04    0.297E-03
RMM:   9    -0.813487648809E+03   -0.11164E-05   -0.28513E-07   378   0.617E-04    0.282E-03
RMM:  10    -0.813487649612E+03   -0.80257E-06   -0.11974E-07   285   0.451E-04
   58 T=   311. E= -.83929003E+03 F= -.84358822E+03 E0= -.84358822E+03  EK= 0.42982E+01 SP= 0.00E+00 SK= 0.00E+00
       N       E                     dE             d eps       ncg     rms          rms(c)
DAV:   1    -0.813478503445E+03    0.91454E-02   -0.68086E-03  1424   0.617E-01    0.100E-01
RMM:   2    -0.813478953212E+03   -0.44977E-03   -0.47242E-03   917   0.721E-02    0.171E-02
RMM:   3    -0.813478991070E+03   -0.37858E-04   -0.44055E-04   996   0.196E-02    0.143E-02
RMM:   4    -0.813478994110E+03   -0.30400E-05   -0.56300E-05  1033   0.667E-03    0.981E-03
RMM:   5    -0.813478995459E+03   -0.13484E-05   -0.40644E-06   530   0.186E-03    0.548E-03
RMM:   6    -0.813478997803E+03   -0.23440E-05   -0.16383E-06   453   0.145E-03    0.246E-03
RMM:   7    -0.813478999773E+03   -0.19702E-05   -0.83587E-07   452   0.108E-03    0.101E-03
RMM:   8    -0.813479001192E+03   -0.14193E-05   -0.37072E-07   431   0.724E-04    0.568E-04
RMM:   9    -0.813479002322E+03   -0.11295E-05   -0.18224E-07   328   0.507E-04    0.350E-04
RMM:  10    -0.813479003426E+03   -0.11044E-05   -0.10111E-07   247   0.426E-04    0.187E-04
RMM:  11    -0.813479004593E+03   -0.11672E-05   -0.72483E-08   234   0.407E-04    0.119E-04
RMM:  12    -0.813479005284E+03   -0.69126E-06   -0.46930E-08   211   0.382E-04
   59 T=   310. E= -.83929004E+03 F= -.84357803E+03 E0= -.84357803E+03  EK= 0.42880E+01 SP= 0.00E+00 SK= 0.00E+00
       N       E                     dE             d eps       ncg     rms          rms(c)
DAV:   1    -0.813464338836E+03    0.14666E-01   -0.85287E-03  1440   0.618E-01    0.567E-02
RMM:   2    -0.813464824729E+03   -0.48589E-03   -0.50672E-03   907   0.766E-02    0.265E-02
RMM:   3    -0.813464869532E+03   -0.44803E-04   -0.50619E-04  1022   0.201E-02    0.312E-02
RMM:   4    -0.813464871904E+03   -0.23722E-05   -0.33940E-05   875   0.517E-03    0.274E-02
RMM:   5    -0.813464872014E+03   -0.10953E-06   -0.24236E-06   480   0.169E-03
   60 T=   309. E= -.83929002E+03 F= -.84356226E+03 E0= -.84356226E+03  EK= 0.42722E+01 SP= 0.00E+00 SK= 0.00E+00
       N       E                     dE             d eps       ncg     rms          rms(c)
DAV:   1    -0.813444537870E+03    0.20334E-01   -0.10428E-02  1424   0.618E-01    0.369E-02
RMM:   2    -0.813445057786E+03   -0.51992E-03   -0.53685E-03   899   0.798E-02    0.419E-02
RMM:   3    -0.813445102627E+03   -0.44842E-04   -0.49530E-04  1001   0.203E-02    0.484E-02
RMM:   4    -0.813445105085E+03   -0.24577E-05   -0.35892E-05   794   0.526E-03    0.454E-02
RMM:   5    -0.813445104697E+03    0.38795E-06   -0.28264E-06   486   0.187E-03
   61 T=   307. E= -.83928999E+03 F= -.84354077E+03 E0= -.84354077E+03  EK= 0.42508E+01 SP= 0.00E+00 SK= 0.00E+00
       N       E                     dE             d eps       ncg     rms          rms(c)
DAV:   1    -0.813419131035E+03    0.25974E-01   -0.99964E-03  1408   0.618E-01    0.503E-02
RMM:   2    -0.813419638494E+03   -0.50746E-03   -0.52710E-03   893   0.799E-02    0.348E-02
RMM:   3    -0.813419683184E+03   -0.44690E-04   -0.49395E-04   994   0.203E-02    0.405E-02
RMM:   4    -0.813419686136E+03   -0.29515E-05   -0.40045E-05   872   0.564E-03    0.359E-02
RMM:   5    -0.813419685913E+03    0.22346E-06   -0.30499E-06   493   0.193E-03
   62 T=   305. E= -.83928995E+03 F= -.84351355E+03 E0= -.84351355E+03  EK= 0.42236E+01 SP= 0.00E+00 SK= 0.00E+00
       N       E                     dE             d eps       ncg     rms          rms(c)
DAV:   1    -0.813388196913E+03    0.31489E-01   -0.71809E-03  1416   0.619E-01    0.585E-02
RMM:   2    -0.813388664270E+03   -0.46736E-03   -0.48763E-03   920   0.735E-02    0.224E-02
RMM:   3    -0.813388706434E+03   -0.42164E-04   -0.48566E-04  1006   0.198E-02    0.251E-02
RMM:   4    -0.813388709284E+03   -0.28500E-05   -0.39626E-05   917   0.550E-03    0.217E-02
RMM:   5    -0.813388709297E+03   -0.12835E-07   -0.23333E-06   482   0.165E-03
   63 T=   303. E= -.83928991E+03 F= -.84348071E+03 E0= -.84348071E+03  EK= 0.41908E+01 SP= 0.00E+00 SK= 0.00E+00
       N       E                     dE             d eps       ncg     rms          rms(c)
DAV:   1    -0.813351904078E+03    0.36805E-01   -0.76794E-03  1440   0.615E-01    0.881E-02
RMM:   2    -0.813352368820E+03   -0.46474E-03   -0.48757E-03   913   0.754E-02    0.133E-02
RMM:   3    -0.813352410243E+03   -0.41423E-04   -0.46375E-04  1001   0.199E-02    0.181E-02
RMM:   4    -0.813352413193E+03   -0.29506E-05   -0.47810E-05   992   0.618E-03    0.146E-02
RMM:   5    -0.813352414016E+03   -0.82240E-06   -0.25028E-06   496   0.155E-03
   64 T=   300. E= -.83928986E+03 F= -.84344250E+03 E0= -.84344250E+03  EK= 0.41526E+01 SP= 0.00E+00 SK= 0.00E+00
       N       E                     dE             d eps       ncg     rms          rms(c)
DAV:   1    -0.813310686648E+03    0.41727E-01   -0.86120E-03  1428   0.614E-01    0.595E-02
RMM:   2    -0.813311140057E+03   -0.45341E-03   -0.47224E-03   898   0.752E-02    0.259E-02
RMM:   3    -0.813311180168E+03   -0.40110E-04   -0.45283E-04   993   0.196E-02    0.306E-02
RMM:   4    -0.813311183062E+03   -0.28943E-05   -0.42889E-05   937   0.578E-03    0.283E-02
RMM:   5    -0.813311183386E+03   -0.32445E-06   -0.20662E-06   481   0.153E-03
   65 T=   297. E= -.83928980E+03 F= -.84339931E+03 E0= -.84339931E+03  EK= 0.41095E+01 SP= 0.00E+00 SK= 0.00E+00
       N       E                     dE             d eps       ncg     rms          rms(c)
DAV:   1    -0.813264981819E+03    0.46201E-01   -0.94969E-03  1440   0.612E-01    0.346E-02
RMM:   2    -0.813265475981E+03   -0.49416E-03   -0.50928E-03   905   0.779E-02    0.413E-02
RMM:   3    -0.813265518418E+03   -0.42437E-04   -0.48113E-04   999   0.199E-02    0.461E-02
RMM:   4    -0.813265521461E+03   -0.30436E-05   -0.38746E-05   821   0.543E-03    0.450E-02
RMM:   5    -0.813265521050E+03    0.41162E-06   -0.23346E-06   476   0.168E-03
   66 T=   294. E= -.83928974E+03 F= -.84335167E+03 E0= -.84335167E+03  EK= 0.40619E+01 SP= 0.00E+00 SK= 0.00E+00
       N       E                     dE             d eps       ncg     rms          rms(c)
DAV:   1    -0.813215488178E+03    0.50033E-01   -0.92274E-03  1452   0.609E-01    0.638E-02
RMM:   2    -0.813215988730E+03   -0.50055E-03   -0.52395E-03   902   0.797E-02    0.265E-02
RMM:   3    -0.813216035158E+03   -0.46428E-04   -0.51084E-04  1006   0.206E-02    0.313E-02
RMM:   4    -0.813216038618E+03   -0.34593E-05   -0.44376E-05   944   0.600E-03    0.275E-02
RMM:   5    -0.813216040107E+03   -0.14897E-05   -0.45102E-06   553   0.215E-03    0.157E-02
RMM:   6    -0.813216042171E+03   -0.20637E-05   -0.19739E-06   453   0.158E-03    0.647E-03
RMM:   7    -0.813216043652E+03   -0.14813E-05   -0.83760E-07   452   0.108E-03    0.262E-03
RMM:   8    -0.813216046272E+03   -0.26194E-05   -0.40804E-07   447   0.772E-04    0.276E-03
RMM:   9    -0.813216046742E+03   -0.47062E-06   -0.17744E-07   338   0.492E-04
   67 T=   290. E= -.83928969E+03 F= -.84330020E+03 E0= -.84330020E+03  EK= 0.40105E+01 SP= 0.00E+00 SK= 0.00E+00
       N       E                     dE             d eps       ncg     rms          rms(c)
DAV:   1    -0.813162887866E+03    0.53158E-01   -0.82704E-03  1440   0.606E-01    0.109E-01
RMM:   2    -0.813163425597E+03   -0.53773E-03   -0.56308E-03   912   0.789E-02    0.185E-02
RMM:   3    -0.813163469763E+03   -0.44166E-04   -0.53592E-04   999   0.217E-02    0.159E-02
RMM:   4    -0.813163472061E+03   -0.22982E-05   -0.65552E-05  1035   0.726E-03    0.104E-02
RMM:   5    -0.813163472859E+03   -0.79816E-06   -0.49078E-06   556   0.200E-03
   68 T=   286. E= -.83928962E+03 F= -.84324562E+03 E0= -.84324562E+03  EK= 0.39560E+01 SP= 0.00E+00 SK= 0.00E+00
       N       E                     dE             d eps       ncg     rms          rms(c)
DAV:   1    -0.813108104026E+03    0.55368E-01   -0.79925E-03  1440   0.602E-01    0.492E-02
RMM:   2    -0.813108574536E+03   -0.47051E-03   -0.48736E-03   905   0.751E-02    0.300E-02
RMM:   3    -0.813108616799E+03   -0.42264E-04   -0.47087E-04  1007   0.198E-02    0.343E-02
RMM:   4    -0.813108619770E+03   -0.29703E-05   -0.38021E-05   859   0.538E-03    0.323E-02
RMM:   5    -0.813108620244E+03   -0.47423E-06   -0.21336E-06   479   0.158E-03
   69 T=   282. E= -.83928954E+03 F= -.84318877E+03 E0= -.84318877E+03  EK= 0.38992E+01 SP= 0.00E+00 SK= 0.00E+00
       N       E                     dE             d eps       ncg     rms          rms(c)
DAV:   1    -0.813051965099E+03    0.56655E-01   -0.55667E-03  1440   0.597E-01    0.181E-02
RMM:   2    -0.813052350115E+03   -0.38502E-03   -0.39946E-03   926   0.662E-02    0.447E-02
RMM:   3    -0.813052386899E+03   -0.36784E-04   -0.41503E-04  1029   0.177E-02    0.516E-02
RMM:   4    -0.813052388237E+03   -0.13376E-05   -0.21216E-05   679   0.405E-03    0.516E-02
RMM:   5    -0.813052388017E+03    0.21981E-06   -0.16139E-06   473   0.142E-03
   70 T=   278. E= -.83928947E+03 F= -.84313056E+03 E0= -.84313056E+03  EK= 0.38411E+01 SP= 0.00E+00 SK= 0.00E+00
       N       E                     dE             d eps       ncg     rms          rms(c)
DAV:   1    -0.812995330249E+03    0.57058E-01   -0.52155E-03  1424   0.592E-01    0.438E-02
RMM:   2    -0.812995691886E+03   -0.36164E-03   -0.37606E-03   915   0.648E-02    0.686E-02
RMM:   3    -0.812995732736E+03   -0.40850E-04   -0.39601E-04  1035   0.176E-02    0.879E-02
RMM:   4    -0.812995746330E+03   -0.13594E-04   -0.31444E-05   948   0.526E-03    0.562E-02
RMM:   5    -0.812995734622E+03    0.11709E-04   -0.31667E-05   791   0.483E-03    0.355E-02
RMM:   6    -0.812995736144E+03   -0.15225E-05   -0.30538E-06   504   0.176E-03    0.280E-02
RMM:   7    -0.812995737033E+03   -0.88854E-06   -0.10183E-06   452   0.119E-03
   71 T=   273. E= -.83928939E+03 F= -.84307195E+03 E0= -.84307195E+03  EK= 0.37826E+01 SP= 0.00E+00 SK= 0.00E+00
       N       E                     dE             d eps       ncg     rms          rms(c)
DAV:   1    -0.812939255361E+03    0.56481E-01   -0.54622E-03  1456   0.586E-01    0.154E-01
RMM:   2    -0.812939658568E+03   -0.40321E-03   -0.45488E-03   927   0.707E-02    0.602E-02
RMM:   3    -0.812939703349E+03   -0.44781E-04   -0.72199E-04   888   0.268E-02    0.553E-02
RMM:   4    -0.812939648143E+03    0.55205E-04   -0.15025E-04   916   0.122E-02    0.116E-02
RMM:   5    -0.812939652134E+03   -0.39912E-05   -0.28297E-05   912   0.426E-03    0.682E-03
RMM:   6    -0.812939654112E+03   -0.19778E-05   -0.35526E-06   513   0.176E-03    0.314E-03
RMM:   7    -0.812939655964E+03   -0.18520E-05   -0.82415E-07   452   0.113E-03    0.128E-03
RMM:   8    -0.812939656881E+03   -0.91728E-06   -0.36528E-07   436   0.718E-04
   72 T=   269. E= -.83928933E+03 F= -.84301396E+03 E0= -.84301396E+03  EK= 0.37246E+01 SP= 0.00E+00 SK= 0.00E+00
       N       E                     dE             d eps       ncg     rms          rms(c)
DAV:   1    -0.812884640399E+03    0.55016E-01   -0.60014E-03  1440   0.582E-01    0.604E-02
RMM:   2    -0.812885067054E+03   -0.42665E-03   -0.44477E-03   912   0.704E-02    0.326E-02
RMM:   3    -0.812885098443E+03   -0.31388E-04   -0.43567E-04  1003   0.197E-02    0.300E-02
RMM:   4    -0.812885101098E+03   -0.26554E-05   -0.51689E-05  1008   0.634E-03    0.249E-02
RMM:   5    -0.812885106540E+03   -0.54424E-05   -0.62225E-06   620   0.225E-03    0.140E-02
RMM:   6    -0.812885113766E+03   -0.72254E-05   -0.45773E-06   597   0.211E-03    0.398E-03
RMM:   7    -0.812885118721E+03   -0.49551E-05   -0.10821E-06   452   0.128E-03    0.369E-03
RMM:   8    -0.812885122055E+03   -0.33338E-05   -0.38188E-07   452   0.806E-04    0.275E-03
RMM:   9    -0.812885123797E+03   -0.17420E-05   -0.21241E-07   380   0.556E-04    0.129E-03
RMM:  10    -0.812885125121E+03   -0.13247E-05   -0.93327E-08   278   0.433E-04    0.575E-04
RMM:  11    -0.812885128533E+03   -0.34119E-05   -0.10656E-07   320   0.434E-04    0.345E-04
RMM:  12    -0.812885130079E+03   -0.15461E-05   -0.31735E-08   183   0.344E-04    0.230E-04
RMM:  13    -0.812885131778E+03   -0.16986E-05   -0.30233E-08   185   0.347E-04    0.120E-04
RMM:  14    -0.812885133293E+03   -0.15145E-05   -0.59367E-08   252   0.392E-04    0.113E-04
RMM:  15    -0.812885133574E+03   -0.28108E-06   -0.27183E-08   203   0.333E-04
   73 T=   265. E= -.83928928E+03 F= -.84295758E+03 E0= -.84295758E+03  EK= 0.36683E+01 SP= 0.00E+00 SK= 0.00E+00
       N       E                     dE             d eps       ncg     rms          rms(c)
DAV:   1    -0.812832635052E+03    0.52498E-01   -0.68227E-03  1424   0.578E-01    0.522E-02
RMM:   2    -0.812833076602E+03   -0.44155E-03   -0.45624E-03   911   0.709E-02    0.273E-02
RMM:   3    -0.812833112096E+03   -0.35494E-04   -0.42468E-04  1012   0.189E-02    0.288E-02
RMM:   4    -0.812833115011E+03   -0.29146E-05   -0.36817E-05   933   0.525E-03    0.262E-02
RMM:   5    -0.812833115830E+03   -0.81869E-06   -0.19496E-06   477   0.149E-03
   74 T=   261. E= -.83928920E+03 F= -.84290377E+03 E0= -.84290377E+03  EK= 0.36146E+01 SP= 0.00E+00 SK= 0.00E+00
       N       E                     dE             d eps       ncg     rms          rms(c)
DAV:   1    -0.812784089394E+03    0.49026E-01   -0.67630E-03  1440   0.573E-01    0.302E-02
RMM:   2    -0.812784483499E+03   -0.39411E-03   -0.40037E-03   906   0.687E-02    0.328E-02
RMM:   3    -0.812784520715E+03   -0.37216E-04   -0.38055E-04  1008   0.176E-02    0.373E-02
RMM:   4    -0.812784523208E+03   -0.24922E-05   -0.26323E-05   741   0.450E-03    0.365E-02
RMM:   5    -0.812784524900E+03   -0.16928E-05   -0.18931E-06   471   0.155E-03    0.314E-02
RMM:   6    -0.812784533228E+03   -0.83272E-05   -0.29982E-06   484   0.183E-03    0.160E-02
RMM:   7    -0.812784542184E+03   -0.89562E-05   -0.22153E-06   456   0.167E-03    0.464E-03
RMM:   8    -0.812784553263E+03   -0.11079E-04   -0.14157E-06   455   0.137E-03    0.824E-03
RMM:   9    -0.812784556234E+03   -0.29707E-05   -0.45597E-07   452   0.819E-04    0.532E-03
RMM:  10    -0.812784559098E+03   -0.28642E-05   -0.27241E-07   426   0.605E-04    0.346E-03
RMM:  11    -0.812784564475E+03   -0.53772E-05   -0.44150E-07   453   0.742E-04    0.797E-04
RMM:  12    -0.812784566607E+03   -0.21315E-05   -0.10806E-07   283   0.445E-04    0.983E-04
RMM:  13    -0.812784569094E+03   -0.24870E-05   -0.90824E-08   279   0.419E-04    0.341E-04
RMM:  14    -0.812784572271E+03   -0.31771E-05   -0.24269E-07   425   0.581E-04    0.237E-03
RMM:  15    -0.812784572961E+03   -0.69053E-06   -0.37724E-08   154   0.306E-04
   75 T=   258. E= -.83928917E+03 F= -.84285351E+03 E0= -.84285351E+03  EK= 0.35643E+01 SP= 0.00E+00 SK= 0.00E+00
       N       E                     dE             d eps       ncg     rms          rms(c)
DAV:   1    -0.812739676985E+03    0.44895E-01   -0.67705E-03  1424   0.569E-01    0.936E-02
RMM:   2    -0.812740141160E+03   -0.46418E-03   -0.46995E-03   911   0.717E-02    0.154E-02
RMM:   3    -0.812740194116E+03   -0.52957E-04   -0.43304E-04   990   0.196E-02    0.157E-02
RMM:   4    -0.812740202125E+03   -0.80084E-05   -0.56507E-05  1039   0.674E-03    0.101E-02
RMM:   5    -0.812740211656E+03   -0.95311E-05   -0.35468E-06   510   0.173E-03    0.628E-03
RMM:   6    -0.812740224566E+03   -0.12910E-04   -0.14418E-06   452   0.135E-03    0.306E-03
RMM:   7    -0.812740237492E+03   -0.12926E-04   -0.86743E-07   452   0.105E-03    0.112E-03
RMM:   8    -0.812740248902E+03   -0.11410E-04   -0.46726E-07   432   0.755E-04    0.684E-04
RMM:   9    -0.812740258502E+03   -0.95998E-05   -0.30161E-07   370   0.566E-04    0.627E-04
RMM:  10    -0.812740267050E+03   -0.85480E-05   -0.21274E-07   294   0.492E-04    0.523E-04
RMM:  11    -0.812740275981E+03   -0.89305E-05   -0.31812E-07   366   0.556E-04    0.336E-04
RMM:  12    -0.812740279106E+03   -0.31259E-05   -0.17696E-07   263   0.448E-04    0.171E-04
RMM:  13    -0.812740279714E+03   -0.60719E-06   -0.97117E-08   232   0.398E-04
   76 T=   254. E= -.83928914E+03 F= -.84280758E+03 E0= -.84280758E+03  EK= 0.35184E+01 SP= 0.00E+00 SK= 0.00E+00
       N       E                     dE             d eps       ncg     rms          rms(c)
DAV:   1    -0.812700549126E+03    0.39730E-01   -0.66170E-03  1440   0.566E-01    0.498E-02
RMM:   2    -0.812700934314E+03   -0.38519E-03   -0.40101E-03   903   0.677E-02    0.215E-02
RMM:   3    -0.812700969727E+03   -0.35413E-04   -0.39703E-04  1030   0.178E-02    0.254E-02
RMM:   4    -0.812700971529E+03   -0.18012E-05   -0.24990E-05   828   0.443E-03    0.222E-02
RMM:   5    -0.812700971859E+03   -0.33026E-06   -0.18139E-06   468   0.151E-03
   77 T=   251. E= -.83928910E+03 F= -.84276673E+03 E0= -.84276673E+03  EK= 0.34776E+01 SP= 0.00E+00 SK= 0.00E+00
       N       E                     dE             d eps       ncg     rms          rms(c)
DAV:   1    -0.812666901390E+03    0.34070E-01   -0.46935E-03  1440   0.562E-01    0.207E-02
RMM:   2    -0.812667210266E+03   -0.30888E-03   -0.31706E-03   912   0.604E-02    0.312E-02
RMM:   3    -0.812667240817E+03   -0.30551E-04   -0.32071E-04  1019   0.159E-02    0.364E-02
RMM:   4    -0.812667242276E+03   -0.14589E-05   -0.17470E-05   670   0.375E-03    0.342E-02
RMM:   5    -0.812667243512E+03   -0.12365E-05   -0.18544E-06   467   0.155E-03    0.278E-02
RMM:   6    -0.812667247656E+03   -0.41438E-05   -0.19054E-06   453   0.151E-03    0.159E-02
RMM:   7    -0.812667257199E+03   -0.95431E-05   -0.42346E-06   560   0.204E-03    0.648E-03
RMM:   8    -0.812667260095E+03   -0.28957E-05   -0.73327E-07   452   0.111E-03    0.685E-03
RMM:   9    -0.812667262270E+03   -0.21755E-05   -0.33167E-07   452   0.715E-04    0.502E-03
RMM:  10    -0.812667263841E+03   -0.15710E-05   -0.16494E-07   341   0.500E-04    0.349E-03
RMM:  11    -0.812667265965E+03   -0.21237E-05   -0.23322E-07   446   0.559E-04    0.778E-04
RMM:  12    -0.812667267968E+03   -0.20029E-05   -0.71394E-08   229   0.385E-04    0.319E-04
RMM:  13    -0.812667270020E+03   -0.20527E-05   -0.94307E-08   300   0.430E-04    0.585E-04
RMM:  14    -0.812667271461E+03   -0.14410E-05   -0.70451E-08   237   0.404E-04    0.915E-04
RMM:  15    -0.812667272609E+03   -0.11475E-05   -0.71181E-08   217   0.397E-04    0.224E-04
RMM:  16    -0.812667272691E+03   -0.81665E-07   -0.32138E-08   199   0.358E-04
   78 T=   249. E= -.83928908E+03 F= -.84273160E+03 E0= -.84273160E+03  EK= 0.34425E+01 SP= 0.00E+00 SK= 0.00E+00
       N       E                     dE             d eps       ncg     rms          rms(c)
DAV:   1    -0.812639219253E+03    0.28053E-01   -0.43813E-03  1440   0.558E-01    0.833E-02
RMM:   2    -0.812639553293E+03   -0.33404E-03   -0.34645E-03   919   0.610E-02    0.149E-02
RMM:   3    -0.812639589198E+03   -0.35905E-04   -0.32660E-04   996   0.168E-02    0.138E-02
RMM:   4    -0.812639592780E+03   -0.35827E-05   -0.42577E-05  1009   0.588E-03    0.708E-03
RMM:   5    -0.812639598046E+03   -0.52658E-05   -0.28343E-06   498   0.161E-03    0.410E-03
RMM:   6    -0.812639604875E+03   -0.68284E-05   -0.11214E-06   452   0.120E-03    0.185E-03
RMM:   7    -0.812639610433E+03   -0.55582E-05   -0.60564E-07   452   0.892E-04    0.800E-04
RMM:   8    -0.812639614944E+03   -0.45110E-05   -0.30465E-07   380   0.622E-04    0.490E-04
RMM:   9    -0.812639619094E+03   -0.41507E-05   -0.18054E-07   288   0.487E-04    0.326E-04
RMM:  10    -0.812639622533E+03   -0.34388E-05   -0.13136E-07   257   0.450E-04    0.268E-04
RMM:  11    -0.812639625906E+03   -0.33729E-05   -0.14652E-07   313   0.453E-04    0.221E-04
RMM:  12    -0.812639628380E+03   -0.24738E-05   -0.14923E-07   273   0.437E-04    0.121E-04
RMM:  13    -0.812639628812E+03   -0.43171E-06   -0.64217E-08   209   0.379E-04
   79 T=   247. E= -.83928907E+03 F= -.84270264E+03 E0= -.84270264E+03  EK= 0.34136E+01 SP= 0.00E+00 SK= 0.00E+00
       N       E                     dE             d eps       ncg     rms          rms(c)
DAV:   1    -0.812617949455E+03    0.21679E-01   -0.60517E-03  1440   0.556E-01    0.461E-02
RMM:   2    -0.812618332380E+03   -0.38292E-03   -0.39862E-03   907   0.661E-02    0.203E-02
RMM:   3    -0.812618366847E+03   -0.34467E-04   -0.37564E-04  1025   0.172E-02    0.243E-02
RMM:   4    -0.812618368652E+03   -0.18053E-05   -0.24964E-05   758   0.435E-03    0.215E-02
RMM:   5    -0.812618368745E+03   -0.93132E-07   -0.16737E-06   461   0.148E-03
   80 T=   245. E= -.83928906E+03 F= -.84268019E+03 E0= -.84268019E+03  EK= 0.33911E+01 SP= 0.00E+00 SK= 0.00E+00
       N       E                     dE             d eps       ncg     rms          rms(c)
DAV:   1    -0.812603341279E+03    0.15027E-01   -0.49385E-03  1440   0.555E-01    0.216E-02
RMM:   2    -0.812603643470E+03   -0.30219E-03   -0.31356E-03   907   0.597E-02    0.285E-02
RMM:   3    -0.812603673001E+03   -0.29531E-04   -0.31679E-04  1029   0.157E-02    0.332E-02
RMM:   4    -0.812603674242E+03   -0.12415E-05   -0.16531E-05   663   0.364E-03    0.311E-02
RMM:   5    -0.812603674732E+03   -0.48958E-06   -0.16070E-06   456   0.146E-03
   81 T=   244. E= -.83928905E+03 F= -.84266445E+03 E0= -.84266445E+03  EK= 0.33754E+01 SP= 0.00E+00 SK= 0.00E+00
       N       E                     dE             d eps       ncg     rms          rms(c)
DAV:   1    -0.812595379183E+03    0.82951E-02   -0.24914E-03  1448   0.552E-01    0.436E-02
RMM:   2    -0.812595582023E+03   -0.20284E-03   -0.21841E-03   931   0.491E-02    0.127E-02
RMM:   3    -0.812595604322E+03   -0.22299E-04   -0.22691E-04  1032   0.133E-02    0.151E-02
RMM:   4    -0.812595606312E+03   -0.19899E-05   -0.15652E-05   703   0.361E-03    0.120E-02
RMM:   5    -0.812595608400E+03   -0.20884E-05   -0.17690E-06   462   0.154E-03    0.685E-03
RMM:   6    -0.812595611371E+03   -0.29709E-05   -0.10287E-06   452   0.113E-03    0.200E-03
RMM:   7    -0.812595613313E+03   -0.19419E-05   -0.46794E-07   436   0.795E-04    0.125E-03
RMM:   8    -0.812595615524E+03   -0.22110E-05   -0.25836E-07   394   0.592E-04    0.131E-03
RMM:   9    -0.812595616115E+03   -0.59120E-06   -0.11445E-07   247   0.435E-04
   82 T=   243. E= -.83928908E+03 F= -.84265548E+03 E0= -.84265548E+03  EK= 0.33664E+01 SP= 0.00E+00 SK= 0.00E+00
       N       E                     dE             d eps       ncg     rms          rms(c)
DAV:   1    -0.812593826797E+03    0.17887E-02   -0.19433E-03  1456   0.551E-01    0.549E-02
RMM:   2    -0.812594026659E+03   -0.19986E-03   -0.21209E-03   939   0.463E-02    0.138E-02
RMM:   3    -0.812594044526E+03   -0.17867E-04   -0.21164E-04  1007   0.134E-02    0.111E-02
RMM:   4    -0.812594046136E+03   -0.16097E-05   -0.28258E-05   928   0.474E-03    0.653E-03
RMM:   5    -0.812594047972E+03   -0.18356E-05   -0.22117E-06   477   0.155E-03    0.366E-03
RMM:   6    -0.812594050487E+03   -0.25153E-05   -0.11522E-06   452   0.122E-03    0.152E-03
RMM:   7    -0.812594052049E+03   -0.15625E-05   -0.58265E-07   452   0.892E-04    0.686E-04
RMM:   8    -0.812594053218E+03   -0.11681E-05   -0.27624E-07   381   0.599E-04    0.398E-04
RMM:   9    -0.812594054230E+03   -0.10122E-05   -0.14318E-07   267   0.457E-04    0.215E-04
RMM:  10    -0.812594055138E+03   -0.90832E-06   -0.87339E-08   217   0.415E-04
   83 T=   243. E= -.83928912E+03 F= -.84265317E+03 E0= -.84265317E+03  EK= 0.33641E+01 SP= 0.00E+00 SK= 0.00E+00
       N       E                     dE             d eps       ncg     rms          rms(c)
DAV:   1    -0.812598437664E+03   -0.43834E-02   -0.34029E-03  1440   0.550E-01    0.361E-02
RMM:   2    -0.812598720038E+03   -0.28237E-03   -0.29489E-03   918   0.551E-02    0.168E-02
RMM:   3    -0.812598748630E+03   -0.28592E-04   -0.29597E-04  1032   0.150E-02    0.195E-02
RMM:   4    -0.812598750372E+03   -0.17424E-05   -0.16965E-05   675   0.367E-03    0.169E-02
RMM:   5    -0.812598751703E+03   -0.13305E-05   -0.15694E-06   460   0.146E-03    0.118E-02
RMM:   6    -0.812598754921E+03   -0.32185E-05   -0.14453E-06   452   0.134E-03    0.314E-03
RMM:   7    -0.812598756809E+03   -0.18883E-05   -0.66397E-07   452   0.977E-04    0.158E-03
RMM:   8    -0.812598758410E+03   -0.16005E-05   -0.27348E-07   390   0.631E-04    0.174E-03
RMM:   9    -0.812598759251E+03   -0.84109E-06   -0.13786E-07   293   0.474E-04
   84 T=   244. E= -.83928916E+03 F= -.84265729E+03 E0= -.84265729E+03  EK= 0.33681E+01 SP= 0.00E+00 SK= 0.00E+00
       N       E                     dE             d eps       ncg     rms          rms(c)
DAV:   1    -0.812608981644E+03   -0.10223E-01   -0.64767E-03  1440   0.552E-01    0.557E-02
RMM:   2    -0.812609341351E+03   -0.35971E-03   -0.37754E-03   902   0.655E-02    0.153E-02
RMM:   3    -0.812609373003E+03   -0.31653E-04   -0.35406E-04  1011   0.168E-02    0.196E-02
RMM:   4    -0.812609374809E+03   -0.18055E-05   -0.29342E-05   836   0.477E-03    0.169E-02
RMM:   5    -0.812609374664E+03    0.14452E-06   -0.16721E-06   462   0.144E-03
   85 T=   244. E= -.83928921E+03 F= -.84266749E+03 E0= -.84266749E+03  EK= 0.33783E+01 SP= 0.00E+00 SK= 0.00E+00
       N       E                     dE             d eps       ncg     rms          rms(c)
DAV:   1    -0.812625026967E+03   -0.15652E-01   -0.63011E-03  1416   0.555E-01    0.269E-02
RMM:   2    -0.812625369552E+03   -0.34258E-03   -0.35440E-03   902   0.636E-02    0.287E-02
RMM:   3    -0.812625401929E+03   -0.32377E-04   -0.34424E-04  1014   0.165E-02    0.332E-02
RMM:   4    -0.812625403491E+03   -0.15627E-05   -0.21030E-05   703   0.403E-03    0.314E-02
RMM:   5    -0.812625403696E+03   -0.20457E-06   -0.15828E-06   459   0.140E-03
   86 T=   245. E= -.83928924E+03 F= -.84268328E+03 E0= -.84268328E+03  EK= 0.33940E+01 SP= 0.00E+00 SK= 0.00E+00
       N       E                     dE             d eps       ncg     rms          rms(c)
DAV:   1    -0.812645941093E+03   -0.20538E-01   -0.47482E-03  1404   0.555E-01    0.329E-02
RMM:   2    -0.812646245656E+03   -0.30456E-03   -0.31797E-03   911   0.590E-02    0.245E-02
RMM:   3    -0.812646275832E+03   -0.30176E-04   -0.31207E-04  1009   0.158E-02    0.278E-02
RMM:   4    -0.812646278051E+03   -0.22190E-05   -0.21052E-05   729   0.405E-03    0.241E-02
RMM:   5    -0.812646279843E+03   -0.17919E-05   -0.21495E-06   455   0.164E-03    0.159E-02
RMM:   6    -0.812646282800E+03   -0.29571E-05   -0.17288E-06   452   0.143E-03    0.742E-03
RMM:   7    -0.812646288280E+03   -0.54798E-05   -0.13914E-06   453   0.131E-03    0.495E-03
RMM:   8    -0.812646289609E+03   -0.13298E-05   -0.50974E-07   452   0.842E-04    0.457E-03
RMM:   9    -0.812646290246E+03   -0.63670E-06   -0.19889E-07   350   0.534E-04
   87 T=   247. E= -.83928930E+03 F= -.84270412E+03 E0= -.84270412E+03  EK= 0.34148E+01 SP= 0.00E+00 SK= 0.00E+00
       N       E                     dE             d eps       ncg     rms          rms(c)
DAV:   1    -0.812671042470E+03   -0.24753E-01   -0.35662E-03  1448   0.558E-01    0.854E-02
RMM:   2    -0.812671331763E+03   -0.28929E-03   -0.30934E-03   929   0.571E-02    0.182E-02
RMM:   3    -0.812671358780E+03   -0.27016E-04   -0.31631E-04  1001   0.163E-02    0.131E-02
RMM:   4    -0.812671358933E+03   -0.15312E-06   -0.45468E-05   997   0.594E-03    0.579E-03
RMM:   5    -0.812671359400E+03   -0.46735E-06   -0.35843E-06   519   0.174E-03
   88 T=   249. E= -.83928937E+03 F= -.84272932E+03 E0= -.84272932E+03  EK= 0.34400E+01 SP= 0.00E+00 SK= 0.00E+00
       N       E                     dE             d eps       ncg     rms          rms(c)
DAV:   1    -0.812699553457E+03   -0.28195E-01   -0.37093E-03  1440   0.559E-01    0.292E-02
RMM:   2    -0.812699817408E+03   -0.26395E-03   -0.27150E-03   925   0.541E-02    0.216E-02
RMM:   3    -0.812699846787E+03   -0.29378E-04   -0.29322E-04  1036   0.147E-02    0.250E-02
RMM:   4    -0.812699848339E+03   -0.15525E-05   -0.13328E-05   643   0.327E-03    0.228E-02
RMM:   5    -0.812699850368E+03   -0.20293E-05   -0.14625E-06   458   0.138E-03    0.187E-02
RMM:   6    -0.812699858002E+03   -0.76335E-05   -0.18176E-06   455   0.146E-03    0.701E-03
RMM:   7    -0.812699864823E+03   -0.68209E-05   -0.13079E-06   453   0.127E-03    0.285E-03
RMM:   8    -0.812699867706E+03   -0.28829E-05   -0.45950E-07   441   0.805E-04    0.312E-03
RMM:   9    -0.812699869631E+03   -0.19253E-05   -0.21845E-07   373   0.541E-04    0.208E-03
RMM:  10    -0.812699871219E+03   -0.15883E-05   -0.18373E-07   359   0.502E-04    0.575E-04
RMM:  11    -0.812699872885E+03   -0.16662E-05   -0.82855E-08   235   0.387E-04    0.248E-04
RMM:  12    -0.812699874988E+03   -0.21030E-05   -0.79013E-08   224   0.379E-04    0.214E-04
RMM:  13    -0.812699875996E+03   -0.10074E-05   -0.65215E-08   217   0.373E-04    0.153E-04
RMM:  14    -0.812699876602E+03   -0.60639E-06   -0.61564E-08   219   0.374E-04
   89 T=   251. E= -.83928943E+03 F= -.84275816E+03 E0= -.84275816E+03  EK= 0.34687E+01 SP= 0.00E+00 SK= 0.00E+00
       N       E                     dE             d eps       ncg     rms          rms(c)
DAV:   1    -0.812730751194E+03   -0.30875E-01   -0.37910E-03  1456   0.562E-01    0.504E-02
RMM:   2    -0.812731018576E+03   -0.26738E-03   -0.28221E-03   925   0.562E-02    0.172E-02
RMM:   3    -0.812731043215E+03   -0.24639E-04   -0.27931E-04   999   0.151E-02    0.183E-02
RMM:   4    -0.812731045689E+03   -0.24746E-05   -0.29158E-05   890   0.472E-03    0.159E-02
RMM:   5    -0.812731046882E+03   -0.11924E-05   -0.19455E-06   474   0.149E-03    0.116E-02
RMM:   6    -0.812731048923E+03   -0.20415E-05   -0.12230E-06   452   0.121E-03    0.679E-03
RMM:   7    -0.812731050655E+03   -0.17319E-05   -0.69729E-07   452   0.936E-04    0.425E-03
RMM:   8    -0.812731052793E+03   -0.21377E-05   -0.40967E-07   415   0.714E-04    0.226E-03
RMM:   9    -0.812731055662E+03   -0.28693E-05   -0.33673E-07   419   0.637E-04    0.426E-04
RMM:  10    -0.812731056987E+03   -0.13254E-05   -0.20682E-07   350   0.512E-04    0.106E-03
RMM:  11    -0.812731058361E+03   -0.13731E-05   -0.10952E-07   235   0.414E-04    0.750E-04
RMM:  12    -0.812731059678E+03   -0.13177E-05   -0.10417E-07   257   0.419E-04    0.261E-04
RMM:  13    -0.812731059856E+03   -0.17774E-06   -0.45822E-08   196   0.356E-04
   90 T=   253. E= -.83928951E+03 F= -.84278985E+03 E0= -.84278985E+03  EK= 0.35003E+01 SP= 0.00E+00 SK= 0.00E+00
       N       E                     dE             d eps       ncg     rms          rms(c)
DAV:   1    -0.812763804777E+03   -0.32745E-01   -0.38116E-03  1440   0.564E-01    0.476E-02
RMM:   2    -0.812764064695E+03   -0.25992E-03   -0.27708E-03   920   0.556E-02    0.139E-02
RMM:   3    -0.812764087718E+03   -0.23023E-04   -0.27029E-04  1005   0.147E-02    0.166E-02
RMM:   4    -0.812764089010E+03   -0.12918E-05   -0.21850E-05   781   0.410E-03    0.144E-02
RMM:   5    -0.812764088981E+03    0.28973E-07   -0.13180E-06   455   0.131E-03
   91 T=   256. E= -.83928958E+03 F= -.84282359E+03 E0= -.84282359E+03  EK= 0.35340E+01 SP= 0.00E+00 SK= 0.00E+00
       N       E                     dE             d eps       ncg     rms          rms(c)
DAV:   1    -0.812797820956E+03   -0.33732E-01   -0.37395E-03  1440   0.567E-01    0.220E-02
RMM:   2    -0.812798096160E+03   -0.27520E-03   -0.28933E-03   922   0.557E-02    0.273E-02
RMM:   3    -0.812798122157E+03   -0.25997E-04   -0.29232E-04  1031   0.149E-02    0.311E-02
RMM:   4    -0.812798122973E+03   -0.81536E-06   -0.14914E-05   648   0.336E-03    0.292E-02
RMM:   5    -0.812798122819E+03    0.15335E-06   -0.13069E-06   459   0.130E-03
   92 T=   258. E= -.83928963E+03 F= -.84285851E+03 E0= -.84285851E+03  EK= 0.35689E+01 SP= 0.00E+00 SK= 0.00E+00
       N       E                     dE             d eps       ncg     rms          rms(c)
DAV:   1    -0.812832045535E+03   -0.33923E-01   -0.41817E-03  1396   0.570E-01    0.293E-02
RMM:   2    -0.812832311137E+03   -0.26560E-03   -0.28138E-03   908   0.553E-02    0.232E-02
RMM:   3    -0.812832338718E+03   -0.27581E-04   -0.30035E-04  1035   0.150E-02    0.275E-02
RMM:   4    -0.812832339577E+03   -0.85885E-06   -0.14920E-05   669   0.344E-03    0.229E-02
RMM:   5    -0.812832339722E+03   -0.14454E-06   -0.22057E-06   460   0.166E-03
   93 T=   261. E= -.83928969E+03 F= -.84289380E+03 E0= -.84289380E+03  EK= 0.36041E+01 SP= 0.00E+00 SK= 0.00E+00
       N       E                     dE             d eps       ncg     rms          rms(c)
DAV:   1    -0.812865658045E+03   -0.33318E-01   -0.36897E-03  1444   0.574E-01    0.610E-02
RMM:   2    -0.812865911650E+03   -0.25360E-03   -0.27491E-03   934   0.544E-02    0.132E-02
RMM:   3    -0.812865935134E+03   -0.23484E-04   -0.28467E-04  1006   0.152E-02    0.135E-02
RMM:   4    -0.812865936287E+03   -0.11534E-05   -0.35290E-05   923   0.512E-03    0.955E-03
[...]
RMM:   2    -0.813683133496E+03   -0.41509E-03   -0.42657E-03   898   0.706E-02    0.272E-02
RMM:   3    -0.813683175539E+03   -0.42042E-04   -0.42695E-04  1013   0.186E-02    0.320E-02
RMM:   4    -0.813683178520E+03   -0.29815E-05   -0.28817E-05   764   0.465E-03    0.296E-02
RMM:   5    -0.813683180401E+03   -0.18805E-05   -0.19454E-06   474   0.157E-03    0.245E-02
RMM:   6    -0.813683184866E+03   -0.44650E-05   -0.13443E-06   452   0.127E-03    0.160E-02
RMM:   7    -0.813683191334E+03   -0.64682E-05   -0.11405E-06   452   0.119E-03    0.668E-03
RMM:   8    -0.813683198294E+03   -0.69597E-05   -0.83964E-07   453   0.102E-03    0.178E-03
RMM:   9    -0.813683201584E+03   -0.32907E-05   -0.37080E-07   429   0.699E-04    0.286E-03
RMM:  10    -0.813683203830E+03   -0.22457E-05   -0.15227E-07   299   0.477E-04    0.198E-03
RMM:  11    -0.813683207404E+03   -0.35736E-05   -0.31013E-07   451   0.620E-04    0.124E-03
RMM:  12    -0.813683208073E+03   -0.66982E-06   -0.49165E-08   193   0.342E-04
 4978 T=   324. E= -.83925173E+03 F= -.84372780E+03 E0= -.84372780E+03  EK= 0.44761E+01 SP= 0.00E+00 SK= 0.00E+00
       N       E                     dE             d eps       ncg     rms          rms(c)
DAV:   1    -0.813661230310E+03    0.21977E-01   -0.79570E-03  1440   0.622E-01    0.851E-02
RMM:   2    -0.813661700390E+03   -0.47008E-03   -0.49698E-03   907   0.745E-02    0.143E-02
RMM:   3    -0.813661741877E+03   -0.41487E-04   -0.47439E-04   999   0.200E-02    0.180E-02
RMM:   4    -0.813661744922E+03   -0.30449E-05   -0.47510E-05   976   0.602E-03    0.146E-02
RMM:   5    -0.813661745502E+03   -0.57986E-06   -0.29643E-06   508   0.168E-03
 4979 T=   322. E= -.83925170E+03 F= -.84370950E+03 E0= -.84370950E+03  EK= 0.44578E+01 SP= 0.00E+00 SK= 0.00E+00
       N       E                     dE             d eps       ncg     rms          rms(c)
DAV:   1    -0.813635135922E+03    0.26609E-01   -0.71744E-03  1424   0.621E-01    0.431E-02
RMM:   2    -0.813635563440E+03   -0.42752E-03   -0.44257E-03   905   0.707E-02    0.268E-02
RMM:   3    -0.813635603934E+03   -0.40494E-04   -0.43019E-04  1018   0.186E-02    0.317E-02
RMM:   4    -0.813635606337E+03   -0.24024E-05   -0.26630E-05   774   0.457E-03    0.289E-02
RMM:   5    -0.813635607346E+03   -0.10094E-05   -0.17584E-06   463   0.150E-03    0.243E-02
RMM:   6    -0.813635610346E+03   -0.29994E-05   -0.14282E-06   453   0.132E-03    0.156E-02
RMM:   7    -0.813635614385E+03   -0.40390E-05   -0.11503E-06   452   0.122E-03    0.701E-03
RMM:   8    -0.813635619706E+03   -0.53219E-05   -0.99273E-07   454   0.114E-03    0.197E-03
RMM:   9    -0.813635621893E+03   -0.21869E-05   -0.40509E-07   445   0.757E-04    0.251E-03
RMM:  10    -0.813635624024E+03   -0.21307E-05   -0.17702E-07   351   0.511E-04    0.183E-03
RMM:  11    -0.813635627658E+03   -0.36340E-05   -0.30087E-07   450   0.648E-04    0.109E-03
RMM:  12    -0.813635628714E+03   -0.10557E-05   -0.63914E-08   213   0.353E-04    0.449E-04
RMM:  13    -0.813635630017E+03   -0.13032E-05   -0.68005E-08   251   0.411E-04    0.364E-04
RMM:  14    -0.813635630384E+03   -0.36687E-06   -0.17963E-08   152   0.329E-04
 4980 T=   321. E= -.83925167E+03 F= -.84368656E+03 E0= -.84368656E+03  EK= 0.44349E+01 SP= 0.00E+00 SK= 0.00E+00
       N       E                     dE             d eps       ncg     rms          rms(c)
DAV:   1    -0.813604813710E+03    0.30816E-01   -0.64265E-03  1424   0.619E-01    0.769E-02
RMM:   2    -0.813605237356E+03   -0.42365E-03   -0.44128E-03   912   0.696E-02    0.140E-02
RMM:   3    -0.813605279615E+03   -0.42260E-04   -0.42246E-04  1004   0.187E-02    0.178E-02
RMM:   4    -0.813605283999E+03   -0.43836E-05   -0.39491E-05   970   0.556E-03    0.140E-02
RMM:   5    -0.813605287401E+03   -0.34022E-05   -0.24680E-06   484   0.162E-03    0.938E-03
RMM:   6    -0.813605292308E+03   -0.49068E-05   -0.13392E-06   452   0.128E-03    0.499E-03
RMM:   7    -0.813605296500E+03   -0.41924E-05   -0.72855E-07   452   0.972E-04    0.266E-03
RMM:   8    -0.813605301229E+03   -0.47286E-05   -0.41086E-07   430   0.724E-04    0.104E-03
RMM:   9    -0.813605305740E+03   -0.45115E-05   -0.27099E-07   390   0.581E-04    0.506E-04
RMM:  10    -0.813605309216E+03   -0.34759E-05   -0.16935E-07   310   0.480E-04    0.912E-04
RMM:  11    -0.813605311602E+03   -0.23860E-05   -0.99582E-08   236   0.415E-04    0.615E-04
RMM:  12    -0.813605313441E+03   -0.18388E-05   -0.10164E-07   282   0.432E-04    0.183E-04
RMM:  13    -0.813605313795E+03   -0.35396E-06   -0.51339E-08   216   0.365E-04
 4981 T=   319. E= -.83925164E+03 F= -.84365942E+03 E0= -.84365942E+03  EK= 0.44078E+01 SP= 0.00E+00 SK= 0.00E+00
       N       E                     dE             d eps       ncg     rms          rms(c)
DAV:   1    -0.813570853304E+03    0.34460E-01   -0.69004E-03  1424   0.616E-01    0.551E-02
RMM:   2    -0.813571266317E+03   -0.41301E-03   -0.43387E-03   913   0.684E-02    0.196E-02
RMM:   3    -0.813571304605E+03   -0.38288E-04   -0.42708E-04  1022   0.183E-02    0.238E-02
RMM:   4    -0.813571306370E+03   -0.17642E-05   -0.26400E-05   820   0.449E-03    0.203E-02
RMM:   5    -0.813571306419E+03   -0.49840E-07   -0.15899E-06   462   0.140E-03
 4982 T=   316. E= -.83925160E+03 F= -.84362859E+03 E0= -.84362859E+03  EK= 0.43770E+01 SP= 0.00E+00 SK= 0.00E+00
       N       E                     dE             d eps       ncg     rms          rms(c)
DAV:   1    -0.813533794409E+03    0.37512E-01   -0.56151E-03  1424   0.614E-01    0.211E-02
RMM:   2    -0.813534153629E+03   -0.35922E-03   -0.37472E-03   905   0.644E-02    0.337E-02
RMM:   3    -0.813534187899E+03   -0.34270E-04   -0.37672E-04  1024   0.172E-02    0.394E-02
RMM:   4    -0.813534189109E+03   -0.12097E-05   -0.19684E-05   691   0.389E-03    0.381E-02
RMM:   5    -0.813534189047E+03    0.61395E-07   -0.14464E-06   465   0.135E-03
 4983 T=   314. E= -.83925155E+03 F= -.84359465E+03 E0= -.84359465E+03  EK= 0.43431E+01 SP= 0.00E+00 SK= 0.00E+00
       N       E                     dE             d eps       ncg     rms          rms(c)
DAV:   1    -0.813494273604E+03    0.39916E-01   -0.38742E-03  1408   0.609E-01    0.126E-02
RMM:   2    -0.813494543785E+03   -0.27018E-03   -0.28504E-03   911   0.564E-02    0.347E-02
RMM:   3    -0.813494572014E+03   -0.28229E-04   -0.30594E-04  1028   0.152E-02    0.416E-02
RMM:   4    -0.813494572615E+03   -0.60145E-06   -0.14454E-05   653   0.343E-03    0.400E-02
RMM:   5    -0.813494572185E+03    0.43059E-06   -0.27130E-06   472   0.178E-03
 4984 T=   311. E= -.83925150E+03 F= -.84355818E+03 E0= -.84355818E+03  EK= 0.43067E+01 SP= 0.00E+00 SK= 0.00E+00
       N       E                     dE             d eps       ncg     rms          rms(c)
DAV:   1    -0.813452788715E+03    0.41784E-01   -0.48824E-03  1444   0.606E-01    0.287E-02
RMM:   2    -0.813453077517E+03   -0.28880E-03   -0.30891E-03   917   0.603E-02    0.334E-02
RMM:   3    -0.813453101045E+03   -0.23529E-04   -0.30929E-04  1006   0.158E-02    0.337E-02
RMM:   4    -0.813453103342E+03   -0.22964E-05   -0.25748E-05   768   0.439E-03    0.331E-02
RMM:   5    -0.813453103425E+03   -0.83543E-07   -0.29253E-06   485   0.190E-03
 4985 T=   309. E= -.83925144E+03 F= -.84351984E+03 E0= -.84351984E+03  EK= 0.42684E+01 SP= 0.00E+00 SK= 0.00E+00
       N       E                     dE             d eps       ncg     rms          rms(c)
DAV:   1    -0.813410019007E+03    0.43084E-01   -0.65621E-03  1412   0.603E-01    0.138E-01
RMM:   2    -0.813410403110E+03   -0.38410E-03   -0.41796E-03   905   0.675E-02    0.329E-02
RMM:   3    -0.813410443728E+03   -0.40619E-04   -0.43994E-04  1014   0.192E-02    0.167E-02
RMM:   4    -0.813410442908E+03    0.82015E-06   -0.52432E-05  1006   0.652E-03    0.584E-03
RMM:   5    -0.813410443613E+03   -0.70540E-06   -0.37318E-06   519   0.182E-03
 4986 T=   306. E= -.83925140E+03 F= -.84348027E+03 E0= -.84348027E+03  EK= 0.42289E+01 SP= 0.00E+00 SK= 0.00E+00
       N       E                     dE             d eps       ncg     rms          rms(c)
DAV:   1    -0.813366782654E+03    0.43660E-01   -0.67322E-03  1440   0.601E-01    0.272E-02
RMM:   2    -0.813367179033E+03   -0.39638E-03   -0.40793E-03   902   0.680E-02    0.392E-02
RMM:   3    -0.813367212336E+03   -0.33303E-04   -0.40045E-04   999   0.181E-02    0.431E-02
RMM:   4    -0.813367214701E+03   -0.23656E-05   -0.30849E-05   789   0.479E-03    0.450E-02
RMM:   5    -0.813367215804E+03   -0.11028E-05   -0.22324E-06   479   0.168E-03    0.385E-02
RMM:   6    -0.813367223212E+03   -0.74081E-05   -0.23453E-05   819   0.433E-03    0.143E-02
RMM:   7    -0.813367224815E+03   -0.16030E-05   -0.26058E-06   488   0.170E-03    0.145E-02
RMM:   8    -0.813367224790E+03    0.25335E-07   -0.10323E-06   452   0.118E-03
 4987 T=   303. E= -.83925134E+03 F= -.84344009E+03 E0= -.84344009E+03  EK= 0.41888E+01 SP= 0.00E+00 SK= 0.00E+00
       N       E                     dE             d eps       ncg     rms          rms(c)
DAV:   1    -0.813323720751E+03    0.43504E-01   -0.75617E-03  1440   0.596E-01    0.884E-02
RMM:   2    -0.813324093606E+03   -0.37285E-03   -0.40340E-03   894   0.689E-02    0.204E-02
RMM:   3    -0.813324133185E+03   -0.39579E-04   -0.41316E-04  1004   0.183E-02    0.181E-02
RMM:   4    -0.813324137308E+03   -0.41228E-05   -0.43302E-05   983   0.586E-03    0.147E-02
RMM:   5    -0.813324139921E+03   -0.26131E-05   -0.59737E-06   629   0.236E-03    0.526E-03
RMM:   6    -0.813324142413E+03   -0.24919E-05   -0.13318E-06   454   0.136E-03    0.287E-03
RMM:   7    -0.813324143535E+03   -0.11227E-05   -0.46288E-07   451   0.865E-04    0.218E-03
RMM:   8    -0.813324144391E+03   -0.85570E-06   -0.26288E-07   399   0.593E-04
 4988 T=   300. E= -.83925130E+03 F= -.84340000E+03 E0= -.84340000E+03  EK= 0.41487E+01 SP= 0.00E+00 SK= 0.00E+00
       N       E                     dE             d eps       ncg     rms          rms(c)
DAV:   1    -0.813281427700E+03    0.42716E-01   -0.68828E-03  1456   0.593E-01    0.534E-02
RMM:   2    -0.813281797264E+03   -0.36956E-03   -0.38671E-03   906   0.683E-02    0.306E-02
RMM:   3    -0.813281832128E+03   -0.34864E-04   -0.39707E-04  1016   0.179E-02    0.313E-02
RMM:   4    -0.813281835108E+03   -0.29799E-05   -0.34897E-05   943   0.529E-03    0.255E-02
RMM:   5    -0.813281837038E+03   -0.19299E-05   -0.13538E-05   784   0.344E-03    0.485E-03
RMM:   6    -0.813281837882E+03   -0.84392E-06   -0.12995E-06   452   0.137E-03
 4989 T=   297. E= -.83925126E+03 F= -.84336062E+03 E0= -.84336062E+03  EK= 0.41094E+01 SP= 0.00E+00 SK= 0.00E+00
       N       E                     dE             d eps       ncg     rms          rms(c)
DAV:   1    -0.813240520450E+03    0.41317E-01   -0.72380E-03  1440   0.589E-01    0.717E-02
RMM:   2    -0.813240892477E+03   -0.37203E-03   -0.39520E-03   897   0.680E-02    0.133E-02
RMM:   3    -0.813240929863E+03   -0.37386E-04   -0.39924E-04  1006   0.181E-02    0.177E-02
RMM:   4    -0.813240932386E+03   -0.25223E-05   -0.37330E-05   947   0.535E-03    0.144E-02
RMM:   5    -0.813240933833E+03   -0.14478E-05   -0.24719E-06   489   0.160E-03    0.957E-03
RMM:   6    -0.813240937339E+03   -0.35051E-05   -0.17226E-06   453   0.143E-03    0.252E-03
RMM:   7    -0.813240940098E+03   -0.27590E-05   -0.81326E-07   452   0.106E-03    0.195E-03
RMM:   8    -0.813240941655E+03   -0.15573E-05   -0.31690E-07   411   0.670E-04    0.161E-03
RMM:   9    -0.813240942646E+03   -0.99129E-06   -0.15860E-07   313   0.479E-04
 4990 T=   294. E= -.83925121E+03 F= -.84332258E+03 E0= -.84332258E+03  EK= 0.40714E+01 SP= 0.00E+00 SK= 0.00E+00
       N       E                     dE             d eps       ncg     rms          rms(c)
DAV:   1    -0.813201600609E+03    0.39341E-01   -0.81437E-03  1440   0.586E-01    0.563E-02
RMM:   2    -0.813201997739E+03   -0.39713E-03   -0.41365E-03   889   0.700E-02    0.197E-02
RMM:   3    -0.813202033173E+03   -0.35434E-04   -0.39192E-04   993   0.180E-02    0.242E-02
RMM:   4    -0.813202035545E+03   -0.23715E-05   -0.31742E-05   824   0.491E-03    0.217E-02
RMM:   5    -0.813202035597E+03   -0.51732E-07   -0.17336E-06   469   0.149E-03
 4991 T=   292. E= -.83925117E+03 F= -.84328645E+03 E0= -.84328645E+03  EK= 0.40353E+01 SP= 0.00E+00 SK= 0.00E+00
       N       E                     dE             d eps       ncg     rms          rms(c)
DAV:   1    -0.813165213396E+03    0.36822E-01   -0.62083E-03  1416   0.582E-01    0.297E-02
RMM:   2    -0.813165577284E+03   -0.36389E-03   -0.37469E-03   899   0.644E-02    0.287E-02
RMM:   3    -0.813165613137E+03   -0.35853E-04   -0.36898E-04  1009   0.170E-02    0.327E-02
RMM:   4    -0.813165615381E+03   -0.22445E-05   -0.23592E-05   728   0.421E-03    0.308E-02
RMM:   5    -0.813165616675E+03   -0.12934E-05   -0.16080E-06   461   0.145E-03    0.252E-02
RMM:   6    -0.813165620880E+03   -0.42055E-05   -0.17221E-06   452   0.143E-03    0.127E-02
RMM:   7    -0.813165626828E+03   -0.59479E-05   -0.18475E-06   455   0.150E-03    0.340E-03
RMM:   8    -0.813165629543E+03   -0.27146E-05   -0.65713E-07   452   0.970E-04    0.543E-03
RMM:   9    -0.813165630376E+03   -0.83349E-06   -0.24948E-07   408   0.603E-04
 4992 T=   289. E= -.83925113E+03 F= -.84325273E+03 E0= -.84325273E+03  EK= 0.40016E+01 SP= 0.00E+00 SK= 0.00E+00
       N       E                     dE             d eps       ncg     rms          rms(c)
DAV:   1    -0.813131732713E+03    0.33897E-01   -0.61637E-03  1424   0.578E-01    0.864E-02
RMM:   2    -0.813132123855E+03   -0.39114E-03   -0.41636E-03   905   0.665E-02    0.144E-02
RMM:   3    -0.813132160485E+03   -0.36631E-04   -0.40894E-04  1003   0.185E-02    0.139E-02
RMM:   4    -0.813132161884E+03   -0.13985E-05   -0.47158E-05  1011   0.607E-03    0.814E-03
RMM:   5    -0.813132162457E+03   -0.57292E-06   -0.32645E-06   506   0.169E-03
 4993 T=   287. E= -.83925108E+03 F= -.84322186E+03 E0= -.84322186E+03  EK= 0.39708E+01 SP= 0.00E+00 SK= 0.00E+00
       N       E                     dE             d eps       ncg     rms          rms(c)
DAV:   1    -0.813101608767E+03    0.30553E-01   -0.59237E-03  1416   0.576E-01    0.381E-02
RMM:   2    -0.813101959394E+03   -0.35063E-03   -0.36290E-03   901   0.630E-02    0.216E-02
RMM:   3    -0.813101994496E+03   -0.35102E-04   -0.37193E-04  1009   0.170E-02    0.255E-02
RMM:   4    -0.813101996557E+03   -0.20610E-05   -0.23941E-05   748   0.425E-03    0.235E-02
RMM:   5    -0.813101997050E+03   -0.49282E-06   -0.15711E-06   461   0.139E-03
 4994 T=   285. E= -.83925103E+03 F= -.84319421E+03 E0= -.84319421E+03  EK= 0.39432E+01 SP= 0.00E+00 SK= 0.00E+00
       N       E                     dE             d eps       ncg     rms          rms(c)
DAV:   1    -0.813075065820E+03    0.26931E-01   -0.52759E-03  1420   0.573E-01    0.268E-02
RMM:   2    -0.813075388912E+03   -0.32309E-03   -0.33502E-03   907   0.617E-02    0.308E-02
RMM:   3    -0.813075419458E+03   -0.30545E-04   -0.32834E-04  1006   0.162E-02    0.349E-02
RMM:   4    -0.813075421254E+03   -0.17967E-05   -0.21837E-05   723   0.411E-03    0.330E-02
RMM:   5    -0.813075421787E+03   -0.53259E-06   -0.18182E-06   464   0.154E-03
 4995 T=   283. E= -.83925099E+03 F= -.84317004E+03 E0= -.84317004E+03  EK= 0.39191E+01 SP= 0.00E+00 SK= 0.00E+00
       N       E                     dE             d eps       ncg     rms          rms(c)
DAV:   1    -0.813052278178E+03    0.23143E-01   -0.55091E-03  1412   0.570E-01    0.607E-02
RMM:   2    -0.813052617580E+03   -0.33940E-03   -0.35636E-03   908   0.635E-02    0.133E-02
RMM:   3    -0.813052650426E+03   -0.32846E-04   -0.34775E-04  1002   0.168E-02    0.169E-02
RMM:   4    -0.813052653129E+03   -0.27031E-05   -0.29927E-05   881   0.487E-03    0.140E-02
RMM:   5    -0.813052654371E+03   -0.12424E-05   -0.19117E-06   473   0.152E-03    0.807E-03
RMM:   6    -0.813052655967E+03   -0.15960E-05   -0.81814E-07   452   0.104E-03    0.328E-03
RMM:   7    -0.813052657137E+03   -0.11699E-05   -0.41581E-07   423   0.751E-04    0.132E-03
RMM:   8    -0.813052658904E+03   -0.17673E-05   -0.24001E-07   376   0.578E-04    0.104E-03
RMM:   9    -0.813052659823E+03   -0.91872E-06   -0.13550E-07   297   0.460E-04
 4996 T=   282. E= -.83925097E+03 F= -.84314958E+03 E0= -.84314958E+03  EK= 0.38986E+01 SP= 0.00E+00 SK= 0.00E+00
       N       E                     dE             d eps       ncg     rms          rms(c)
DAV:   1    -0.813033325275E+03    0.19334E-01   -0.64465E-03  1424   0.570E-01    0.738E-02
RMM:   2    -0.813033746007E+03   -0.42073E-03   -0.43684E-03   908   0.674E-02    0.147E-02
RMM:   3    -0.813033782886E+03   -0.36879E-04   -0.40879E-04   998   0.185E-02    0.164E-02
RMM:   4    -0.813033785744E+03   -0.28574E-05   -0.45738E-05  1001   0.587E-03    0.124E-02
RMM:   5    -0.813033787200E+03   -0.14562E-05   -0.27216E-06   490   0.167E-03    0.795E-03
RMM:   6    -0.813033790655E+03   -0.34547E-05   -0.21676E-06   456   0.160E-03    0.246E-03
RMM:   7    -0.813033792583E+03   -0.19287E-05   -0.90748E-07   452   0.114E-03    0.917E-04
RMM:   8    -0.813033793903E+03   -0.13199E-05   -0.39093E-07   441   0.736E-04    0.495E-04
RMM:   9    -0.813033795200E+03   -0.12966E-05   -0.18965E-07   336   0.511E-04    0.313E-04
RMM:  10    -0.813033796757E+03   -0.15572E-05   -0.10723E-07   246   0.430E-04    0.163E-04
RMM:  11    -0.813033797758E+03   -0.10010E-05   -0.71716E-08   228   0.407E-04    0.145E-04
RMM:  12    -0.813033798462E+03   -0.70382E-06   -0.54171E-08   225   0.389E-04
 4997 T=   281. E= -.83925095E+03 F= -.84313293E+03 E0= -.84313293E+03  EK= 0.38820E+01 SP= 0.00E+00 SK= 0.00E+00
       N       E                     dE             d eps       ncg     rms          rms(c)
DAV:   1    -0.813018423129E+03    0.15375E-01   -0.62679E-03  1424   0.568E-01    0.467E-02
RMM:   2    -0.813018831844E+03   -0.40871E-03   -0.42585E-03   911   0.670E-02    0.207E-02
RMM:   3    -0.813018871398E+03   -0.39554E-04   -0.43370E-04  1018   0.183E-02    0.241E-02
RMM:   4    -0.813018873372E+03   -0.19736E-05   -0.26520E-05   827   0.457E-03    0.209E-02
RMM:   5    -0.813018873684E+03   -0.31269E-06   -0.18347E-06   464   0.149E-03
 4998 T=   280. E= -.83925092E+03 F= -.84312012E+03 E0= -.84312012E+03  EK= 0.38692E+01 SP= 0.00E+00 SK= 0.00E+00
       N       E                     dE             d eps       ncg     rms          rms(c)
DAV:   1    -0.813007443498E+03    0.11430E-01   -0.62705E-03  1440   0.567E-01    0.327E-02
RMM:   2    -0.813007810568E+03   -0.36707E-03   -0.37981E-03   906   0.656E-02    0.288E-02
RMM:   3    -0.813007845289E+03   -0.34721E-04   -0.36749E-04  1016   0.170E-02    0.331E-02
RMM:   4    -0.813007847270E+03   -0.19811E-05   -0.21124E-05   731   0.411E-03    0.297E-02
RMM:   5    -0.813007848461E+03   -0.11907E-05   -0.23200E-06   468   0.174E-03    0.207E-02
RMM:   6    -0.813007850841E+03   -0.23805E-05   -0.17375E-06   452   0.146E-03    0.107E-02
RMM:   7    -0.813007854872E+03   -0.40303E-05   -0.14027E-06   452   0.136E-03    0.355E-03
RMM:   8    -0.813007856696E+03   -0.18249E-05   -0.57552E-07   451   0.913E-04    0.510E-03
RMM:   9    -0.813007857291E+03   -0.59431E-06   -0.21484E-07   369   0.566E-04
 4999 T=   279. E= -.83925091E+03 F= -.84311112E+03 E0= -.84311112E+03  EK= 0.38602E+01 SP= 0.00E+00 SK= 0.00E+00
       N       E                     dE             d eps       ncg     rms          rms(c)
DAV:   1    -0.813000239555E+03    0.76171E-02   -0.56551E-03  1416   0.567E-01    0.871E-02
RMM:   2    -0.813000600962E+03   -0.36141E-03   -0.38342E-03   904   0.643E-02    0.140E-02
RMM:   3    -0.813000631652E+03   -0.30691E-04   -0.35557E-04   991   0.175E-02    0.136E-02
RMM:   4    -0.813000632583E+03   -0.93048E-06   -0.43071E-05  1013   0.582E-03    0.874E-03
RMM:   5    -0.813000632636E+03   -0.53784E-07   -0.26515E-06   492   0.161E-03
 5000 T=   279. E= -.83925089E+03 F= -.84310583E+03 E0= -.84310583E+03  EK= 0.38549E+01 SP= 0.00E+00 SK= 0.00E+00
